 running on    1 total cores
 distrk:  each k-point on    1 cores,    1 groups
 distr:  one band on    1 cores,    1 groups
 using from now: INCAR     
 vasp.5.4.1 05Feb16 (build Apr 25 2018 11:37:45) complex                        
  
 POSCAR found type information on POSCAR  H  O 
 POSCAR found :  2 types and       3 ions
 LDA part: xc-table for Pade appr. of Perdew
 POSCAR found type information on POSCAR  H  O 
 POSCAR found :  2 types and       3 ions
 POSCAR, INCAR and KPOINTS ok, starting setup
 WARNING: small aliasing (wrap around) errors must be expected
 FFT: planning ...
 WAVECAR not read
 entering main loop
       N       E                     dE             d eps       ncg     rms          rms(c)
DAV:   1     0.419819914740E+02    0.41982E+02   -0.23526E+03    24   0.440E+02
DAV:   2    -0.995752565960E+01   -0.51940E+02   -0.51938E+02    24   0.118E+02
DAV:   3    -0.161764045448E+02   -0.62189E+01   -0.62189E+01    16   0.495E+01
DAV:   4    -0.162510613595E+02   -0.74657E-01   -0.74657E-01    32   0.644E+00
DAV:   5    -0.162510740793E+02   -0.12720E-04   -0.12720E-04    32   0.736E-02    0.788E+00
DAV:   6    -0.143916185815E+02    0.18595E+01   -0.92895E+00    16   0.214E+01    0.325E+00
DAV:   7    -0.142840890235E+02    0.10753E+00   -0.98261E-02    32   0.265E+00    0.199E+00
DAV:   8    -0.142040320956E+02    0.80057E-01   -0.69847E-02    16   0.259E+00    0.220E-01
DAV:   9    -0.142082276806E+02   -0.41956E-02   -0.61892E-03    32   0.502E-01    0.152E-01
DAV:  10    -0.142171268119E+02   -0.88991E-02   -0.51513E-03    16   0.646E-01    0.908E-02
DAV:  11    -0.142214382935E+02   -0.43115E-02   -0.40352E-03    16   0.394E-01    0.740E-02
DAV:  12    -0.142253533665E+02   -0.39151E-02   -0.16692E-03    32   0.250E-01    0.235E-02
DAV:  13    -0.142261645516E+02   -0.81119E-03   -0.86283E-05    24   0.686E-02    0.112E-02
DAV:  14    -0.142265437067E+02   -0.37916E-03   -0.44574E-05    32   0.365E-02    0.658E-03
DAV:  15    -0.142266271639E+02   -0.83457E-04   -0.82622E-06    32   0.176E-02
   1 F= -.14226627E+02 E0= -.14226627E+02  d E =-.142266E+02
 BRION: g(F)=  0.250E-03 g(S)=  0.000E+00
 bond charge predicted
       N       E                     dE             d eps       ncg     rms          rms(c)
DAV:   1    -0.142264580955E+02    0.85611E-04   -0.33211E-02    24   0.187E+00    0.713E-02
DAV:   2    -0.142264008006E+02    0.57295E-04   -0.90466E-04    16   0.248E-01
   2 F= -.14226401E+02 E0= -.14226401E+02  d E =0.226363E-03
 BRION: g(F)=  0.207E-02 g(S)=  0.000E+00 retain N=  1 mean eig= 0.26
 eig:   0.256
 bond charge predicted
       N       E                     dE             d eps       ncg     rms          rms(c)
DAV:   1    -0.142266861226E+02   -0.22803E-03   -0.22410E-02    16   0.154E+00    0.513E-02
DAV:   2    -0.142266769128E+02    0.92098E-05   -0.65952E-04    24   0.226E-01
   3 F= -.14226677E+02 E0= -.14226677E+02  d E =-.276112E-03
 BRION: g(F)=  0.348E-05 g(S)=  0.000E+00 retain N=  1 mean eig= 0.27
 eig:   0.266
 reached required accuracy - stopping structural energy minimisation
 writing wavefunctions
