       N       E                     dE             d eps       ncg     rms          rms(c)
DAV:   1    -0.142266802592E+02   -0.14227E+02   -0.16183E-03    16   0.404E-01    0.329E-02
DAV:   2    -0.142266518384E+02    0.28421E-04   -0.72758E-05    32   0.757E-02
   1 F= -.14226652E+02 E0= -.14226652E+02  d E =-.142267E+02
       N       E                     dE             d eps       ncg     rms          rms(c)
DAV:   1    -0.142265070095E+02    0.17325E-03   -0.26446E-02    16   0.167E+00    0.614E-02
DAV:   2    -0.142264800200E+02    0.26990E-04   -0.76799E-04    24   0.243E-01
   2 F= -.14226480E+02 E0= -.14226480E+02  d E =0.171818E-03
       N       E                     dE             d eps       ncg     rms          rms(c)
DAV:   1    -0.142266873156E+02   -0.18031E-03   -0.17042E-02    16   0.134E+00    0.435E-02
DAV:   2    -0.142266786737E+02    0.86419E-05   -0.45042E-04    24   0.188E-01
   3 F= -.14226679E+02 E0= -.14226679E+02  d E =-.198654E-03
