 vasp.5.4.1 05Feb16 (build Apr 25 2018 11:37:45) complex                        
  
 executed on             LinuxIFC date 2021.02.16  09:53:16
 running on    1 total cores
 distrk:  each k-point on    1 cores,    1 groups
 distr:  one band on NCORES_PER_BAND=   1 cores,    1 groups


--------------------------------------------------------------------------------------------------------


 INCAR:
 POTCAR:    PAW_PBE H 15Jun2001                   
 POTCAR:    PAW_PBE O 08Apr2002                   
 POTCAR:    PAW_PBE H 15Jun2001                   
   VRHFIN =H: ultrasoft test                                                    
   LEXCH  = PE                                                                  
   EATOM  =    12.4884 eV,    0.9179 Ry                                         
                                                                                
   TITEL  = PAW_PBE H 15Jun2001                                                 
   LULTRA =        F    use ultrasoft PP ?                                      
   IUNSCR =        0    unscreen: 0-lin 1-nonlin 2-no                           
   RPACOR =    0.000    partial core radius                                     
   POMASS =    1.000; ZVAL   =    1.000    mass and valenz                      
   RCORE  =    1.100    outmost cutoff radius                                   
   RWIGS  =    0.700; RWIGS  =    0.370    wigner-seitz radius (au A)           
   ENMAX  =  250.000; ENMIN  =  200.000 eV                                      
   RCLOC  =    0.701    cutoff for local pot                                    
   LCOR   =        T    correct aug charges                                     
   LPAW   =        T    paw PP                                                  
   EAUG   =  400.000                                                            
   RMAX   =    1.123    core radius for proj-oper                               
   RAUG   =    1.200    factor for augmentation sphere                          
   RDEP   =    1.112    radius for radial grids                                 
   RDEPT  =    0.926    core radius for aug-charge                              
                                                                                
   Atomic configuration                                                         
    2 entries                                                                   
     n  l   j            E        occ.                                          
     1  0  0.50        -6.4927   1.0000                                         
     2  1  0.50        -3.4015   0.0000                                         
   Description                                                                  
     l       E           TYP  RCUT    TYP  RCUT                                 
     0     -6.4927494     23  1.100                                             
     0      6.8029130     23  1.100                                             
     1     -4.0817478     23  1.100                                             
  local pseudopotential read in
  atomic valenz-charges read in
  non local Contribution for L=           0  read in
    real space projection operators read in
  non local Contribution for L=           0  read in
    real space projection operators read in
  non local Contribution for L=           1  read in
    real space projection operators read in
    PAW grid and wavefunctions read in
 
   number of l-projection  operators is LMAX  =           3
   number of lm-projection operators is LMMAX =           5
 
 POTCAR:    PAW_PBE O 08Apr2002                   
   VRHFIN =O: s2p4                                                              
   LEXCH  = PE                                                                  
   EATOM  =   432.3788 eV,   31.7789 Ry                                         
                                                                                
   TITEL  = PAW_PBE O 08Apr2002                                                 
   LULTRA =        F    use ultrasoft PP ?                                      
   IUNSCR =        1    unscreen: 0-lin 1-nonlin 2-no                           
   RPACOR =    1.200    partial core radius                                     
   POMASS =   16.000; ZVAL   =    6.000    mass and valenz                      
   RCORE  =    1.520    outmost cutoff radius                                   
   RWIGS  =    1.550; RWIGS  =    0.820    wigner-seitz radius (au A)           
   ENMAX  =  400.000; ENMIN  =  300.000 eV                                      
   ICORE  =        2    local potential                                         
   LCOR   =        T    correct aug charges                                     
   LPAW   =        T    paw PP                                                  
   EAUG   =  605.392                                                            
   DEXC   =    0.000                                                            
   RMAX   =    1.553    core radius for proj-oper                               
   RAUG   =    1.300    factor for augmentation sphere                          
   RDEP   =    1.550    radius for radial grids                                 
   RDEPT  =    1.329    core radius for aug-charge                              
                                                                                
   Atomic configuration                                                         
    4 entries                                                                   
     n  l   j            E        occ.                                          
     1  0  0.50      -514.6923   2.0000                                         
     2  0  0.50       -23.9615   2.0000                                         
     2  1  0.50        -9.0305   4.0000                                         
     3  2  1.50        -9.5241   0.0000                                         
   Description                                                                  
     l       E           TYP  RCUT    TYP  RCUT                                 
     0    -23.9615318     23  1.200                                             
     0     -9.5240782     23  1.200                                             
     1     -9.0304911     23  1.520                                             
     1      8.1634956     23  1.520                                             
     2     -9.5240782      7  1.500                                             
  local pseudopotential read in
  partial core-charges read in
  partial kinetic energy density read in
  kinetic energy density of atom read in
  atomic valenz-charges read in
  non local Contribution for L=           0  read in
    real space projection operators read in
  non local Contribution for L=           0  read in
    real space projection operators read in
  non local Contribution for L=           1  read in
    real space projection operators read in
  non local Contribution for L=           1  read in
    real space projection operators read in
    PAW grid and wavefunctions read in
 
   number of l-projection  operators is LMAX  =           4
   number of lm-projection operators is LMMAX =           8
 
  PAW_PBE H 15Jun2001                   :
 energy of atom  1       EATOM=  -12.4884
 kinetic energy error for atom=    0.0098 (will be added to EATOM!!)
  PAW_PBE O 08Apr2002                   :
 energy of atom  2       EATOM= -432.3788
 kinetic energy error for atom=    0.1156 (will be added to EATOM!!)
 
 
 POSCAR:  H  O                                   
  positions in cartesian coordinates
  No initial velocities read in
 exchange correlation table for  LEXCH =        8
   RHO(1)=    0.500       N(1)  =     2000
   RHO(2)=  100.500       N(2)  =     4000

 VTST: version 3.2, (02/03/18)

 CHAIN: initializing optimizer
 
 OPT: Using VASP QUASI-newton optimizer
 CHAIN: Read ICHAIN            0
 
 POSCAR:  H  O                                   
  positions in cartesian coordinates
  No initial velocities read in
 


--------------------------------------------------------------------------------------------------------


 ion  position               nearest neighbor table
   1  0.537  0.404  0.500-   3 0.97
   2  0.537  0.596  0.500-   3 0.97
   3  0.463  0.500  0.500-   1 0.97   2 0.97
 
  LATTYP: Found a simple cubic cell.
 ALAT       =     8.0000000000
  
  Lattice vectors:
  
 A1 = (   8.0000000000,   0.0000000000,   0.0000000000)
 A2 = (   0.0000000000,   8.0000000000,   0.0000000000)
 A3 = (   0.0000000000,   0.0000000000,   8.0000000000)


Analysis of symmetry for initial positions (statically):
=====================================================================
 Subroutine PRICEL returns:
 Original cell was already a primitive cell.
 

 Routine SETGRP: Setting up the symmetry group for a 
 simple cubic supercell.


 Subroutine GETGRP returns: Found  4 space group operations
 (whereof  4 operations were pure point group operations)
 out of a pool of 48 trial point group operations.


The static configuration has the point symmetry C_2v.


Analysis of symmetry for dynamics (positions and initial velocities):
=====================================================================
 Subroutine PRICEL returns:
 Original cell was already a primitive cell.
 

 Routine SETGRP: Setting up the symmetry group for a 
 simple cubic supercell.


 Subroutine GETGRP returns: Found  4 space group operations
 (whereof  4 operations were pure point group operations)
 out of a pool of 48 trial point group operations.


The dynamic configuration has the point symmetry C_2v.


 Subroutine INISYM returns: Found  4 space group operations
 (whereof  4 operations are pure point group operations),
 and found     1 'primitive' translations

 
 
 KPOINTS: KPOINTS created by Atomic Simulation Env

Automatic generation of k-mesh.
Space group operators:
 irot       det(A)        alpha          n_x          n_y          n_z        tau_x        tau_y        tau_z
    1     1.000000     0.000000     1.000000     0.000000     0.000000     0.000000     0.000000     0.000000
    2    -1.000000   180.000000     0.000000     0.000000     1.000000     0.000000     0.000000     0.000000
    3     1.000000   180.000000     1.000000     0.000000     0.000000     0.000000     0.000000     0.000000
    4    -1.000000   180.000000     0.000000     1.000000     0.000000     0.000000     0.000000     0.000000
 
 Subroutine IBZKPT returns following result:
 ===========================================
 
 Found      1 irreducible k-points:
 
 Following reciprocal coordinates:
            Coordinates               Weight
  0.000000  0.000000  0.000000      1.000000
 
 Following cartesian coordinates:
            Coordinates               Weight
  0.000000  0.000000  0.000000      1.000000
 


--------------------------------------------------------------------------------------------------------




 Dimension of arrays:
   k-points           NKPTS =      1   k-points in BZ     NKDIM =      1   number of bands    NBANDS=      8
   number of dos      NEDOS =    301   number of ions     NIONS =      3
   non local maximal  LDIM  =      4   non local SUM 2l+1 LMDIM =      8
   total plane-waves  NPLWV =  64000
   max r-space proj   IRMAX =      1   max aug-charges    IRDMAX=   1821
   dimension x,y,z NGX =    40 NGY =   40 NGZ =   40
   dimension x,y,z NGXF=    80 NGYF=   80 NGZF=   80
   support grid    NGXF=    80 NGYF=   80 NGZF=   80
   ions per type =               2   1
 NGX,Y,Z   is equivalent  to a cutoff of   8.31,  8.31,  8.31 a.u.
 NGXF,Y,Z  is equivalent  to a cutoff of  16.62, 16.62, 16.62 a.u.


 I would recommend the setting:
   dimension x,y,z NGX =    39 NGY =   39 NGZ =   39
 SYSTEM =  unknown system                          
 POSCAR =   H  O                                   

 Startparameter for this run:
   NWRITE =      2    write-flag & timer
   PREC   = normal    normal or accurate (medium, high low for compatibility)
   ISTART =      1    job   : 0-new  1-cont  2-samecut
   ICHARG =      0    charge: 1-file 2-atom 10-const
   ISPIN  =      1    spin polarized calculation?
   LNONCOLLINEAR =      F non collinear calculations
   LSORBIT =      F    spin-orbit coupling
   INIWAV =      1    electr: 0-lowe 1-rand  2-diag
   LASPH  =      F    aspherical Exc in radial PAW
   METAGGA=      F    non-selfconsistent MetaGGA calc.

 Electronic Relaxation 1
   ENCUT  =  400.0 eV  29.40 Ry    5.42 a.u.  13.05 13.05 13.05*2*pi/ulx,y,z
   ENINI  =  400.0     initial cutoff
   ENAUG  =  605.4 eV  augmentation charge cutoff
   NELM   =     60;   NELMIN=  2; NELMDL=  0     # of ELM steps 
   EDIFF  = 0.1E-03   stopping-criterion for ELM
   LREAL  =      F    real-space projection
   NLSPLINE    = F    spline interpolate recip. space projectors
   LCOMPAT=      F    compatible to vasp.4.4
   GGA_COMPAT  = T    GGA compatible to vasp.4.4-vasp.4.6
   LMAXPAW     = -100 max onsite density
   LMAXMIX     =    2 max onsite mixed and CHGCAR
   VOSKOWN=      0    Vosko Wilk Nusair interpolation
   ROPT   =    0.00000   0.00000
 Ionic relaxation
   EDIFFG = -.3E-01   stopping-criterion for IOM
   NSW    =    500    number of steps for IOM
   NBLOCK =      1;   KBLOCK =    500    inner block; outer block 
   IBRION =      1    ionic relax: 0-MD 1-quasi-New 2-CG
   NFREE  =      0    steps in history (QN), initial steepest desc. (CG)
   ISIF   =      2    stress and relaxation
   IWAVPR =     11    prediction:  0-non 1-charg 2-wave 3-comb
   ISYM   =      2    0-nonsym 1-usesym 2-fastsym
   LCORR  =      T    Harris-Foulkes like correction to forces

   POTIM  = 0.5000    time-step for ionic-motion
   TEIN   =    0.0    initial temperature
   TEBEG  =    0.0;   TEEND  =   0.0 temperature during run
   SMASS  =  -3.00    Nose mass-parameter (am)
   estimated Nose-frequenzy (Omega)   =  0.10E-29 period in steps =****** mass=  -0.146E-26a.u.
   SCALEE = 1.0000    scale energy and forces
   NPACO  =    256;   APACO  = 16.0  distance and # of slots for P.C.
   PSTRESS=    0.0 pullay stress

  Mass of Ions in am
   POMASS =   1.00 16.00
  Ionic Valenz
   ZVAL   =   1.00  6.00
  Atomic Wigner-Seitz radii
   RWIGS  =  -1.00 -1.00
  virtual crystal weights 
   VCA    =   1.00  1.00
   NELECT =       8.0000    total number of electrons
   NUPDOWN=      -1.0000    fix difference up-down

 DOS related values:
   EMIN   =  10.00;   EMAX   =-10.00  energy-range for DOS
   EFERMI =   0.00
   ISMEAR =     0;   SIGMA  =   0.20  broadening in eV -4-tet -1-fermi 0-gaus

 Electronic relaxation 2 (details)
   IALGO  =     38    algorithm
   LDIAG  =      T    sub-space diagonalisation (order eigenvalues)
   LSUBROT=      F    optimize rotation matrix (better conditioning)
   TURBO    =      0    0=normal 1=particle mesh
   IRESTART =      0    0=no restart 2=restart with 2 vectors
   NREBOOT  =      0    no. of reboots
   NMIN     =      0    reboot dimension
   EREF     =   0.00    reference energy to select bands
   IMIX   =      4    mixing-type and parameters
     AMIX     =   0.40;   BMIX     =  1.00
     AMIX_MAG =   1.60;   BMIX_MAG =  1.00
     AMIN     =   0.10
     WC   =   100.;   INIMIX=   1;  MIXPRE=   1;  MAXMIX= -45

 Intra band minimization:
   WEIMIN = 0.0010     energy-eigenvalue tresh-hold
   EBREAK =  0.31E-05  absolut break condition
   DEPER  =   0.30     relativ break condition  

   TIME   =   0.40     timestep for ELM

  volume/ion in A,a.u.               =     170.67      1151.72
  Fermi-wavevector in a.u.,A,eV,Ry     =   0.409275  0.773417  2.279054  0.167506
  Thomas-Fermi vector in A             =   1.364147
 
 Write flags
   LWAVE  =      T    write WAVECAR
   LCHARG =      T    write CHGCAR
   LVTOT  =      F    write LOCPOT, total local potential
   LVHAR  =      F    write LOCPOT, Hartree potential only
   LELF   =      F    write electronic localiz. function (ELF)
   LORBIT =      0    0 simple, 1 ext, 2 COOP (PROOUT)


 Dipole corrections
   LMONO  =      F    monopole corrections only (constant potential shift)
   LDIPOL =      F    correct potential (dipole corrections)
   IDIPOL =      0    1-x, 2-y, 3-z, 4-all directions 
   EPSILON=  1.0000000 bulk dielectric constant

 Exchange correlation treatment:
   GGA     =    PE    GGA type
   LEXCH   =     8    internal setting for exchange type
   VOSKOWN=      0    Vosko Wilk Nusair interpolation
   LHFCALC =     F    Hartree Fock is set to
   LHFONE  =     F    Hartree Fock one center treatment
   AEXX    =    0.0000 exact exchange contribution

 Linear response parameters
   LEPSILON=     F    determine dielectric tensor
   LRPA    =     F    only Hartree local field effects (RPA)
   LNABLA  =     F    use nabla operator in PAW spheres
   LVEL    =     F    velocity operator in full k-point grid
   LINTERFAST=   F  fast interpolation
   KINTER  =     0    interpolate to denser k-point grid
   CSHIFT  =0.1000    complex shift for real part using Kramers Kronig
   OMEGAMAX=  -1.0    maximum frequency
   DEG_THRESHOLD= 0.2000000E-02 threshold for treating states as degnerate
   RTIME   =    0.100 relaxation time in fs

 Orbital magnetization related:
   ORBITALMAG=     F  switch on orbital magnetization
   LCHIMAG   =     F  perturbation theory with respect to B field
   DQ        =  0.001000  dq finite difference perturbation B field



--------------------------------------------------------------------------------------------------------


 quasi-Newton-method for relaxation of ions
 charge density and potential will be updated during run
 non-spin polarized calculation
 Variant of blocked Davidson
 Davidson routine will perform the subspace rotation
 perform sub-space diagonalisation
    after iterative eigenvector-optimisation
 modified Broyden-mixing scheme, WC =      100.0
 initial mixing is a Kerker type mixing with AMIX =  0.4000 and BMIX =      1.0000
 Hartree-type preconditioning will be used
 using additional bands            4
 reciprocal scheme for non local part
 use partial core corrections
 calculate Harris-corrections to forces 
   (improved forces if not selfconsistent)
 use gradient corrections 
 use of overlap-Matrix (Vanderbilt PP)
 Gauss-broadening in eV      SIGMA  =   0.20


--------------------------------------------------------------------------------------------------------


  energy-cutoff  :      400.00
  volume of cell :      512.00
      direct lattice vectors                 reciprocal lattice vectors
     8.000000000  0.000000000  0.000000000     0.125000000  0.000000000  0.000000000
     0.000000000  8.000000000  0.000000000     0.000000000  0.125000000  0.000000000
     0.000000000  0.000000000  8.000000000     0.000000000  0.000000000  0.125000000

  length of vectors
     8.000000000  8.000000000  8.000000000     0.125000000  0.125000000  0.125000000


 
 old parameters found on file WAVECAR:
  energy-cutoff  :      400.00
  volume of cell :      512.00
      direct lattice vectors                 reciprocal lattice vectors
     8.000000000  0.000000000  0.000000000     0.125000000  0.000000000  0.000000000
     0.000000000  8.000000000  0.000000000     0.000000000  0.125000000  0.000000000
     0.000000000  0.000000000  8.000000000     0.000000000  0.000000000  0.125000000

  length of vectors

 
 k-points in units of 2pi/SCALE and weight: KPOINTS created by Atomic Simulation Env
   0.00000000  0.00000000  0.00000000       1.000
 
 k-points in reciprocal lattice and weights: KPOINTS created by Atomic Simulation Env
   0.00000000  0.00000000  0.00000000       1.000
 
 position of ions in fractional coordinates (direct lattice) 
   0.53725507  0.40403328  0.50000000
   0.53725507  0.59596672  0.50000000
   0.46274493  0.49999663  0.50000000
 
 position of ions in cartesian coordinates  (Angst):
   4.29804060  3.23226626  4.00000000
   4.29804060  4.76773374  4.00000000
   3.70195940  3.99997306  4.00000000
 


--------------------------------------------------------------------------------------------------------


 k-point  1 :   0.0000 0.0000 0.0000  plane waves:    9315

 maximum and minimum number of plane-waves per node :      9315     9315

 maximum number of plane-waves:      9315
 maximum index in each direction: 
   IXMAX=   13   IYMAX=   13   IZMAX=   13
   IXMIN=  -13   IYMIN=  -13   IZMIN=  -13

 WARNING: aliasing errors must be expected set NGX to  54 to avoid them
 WARNING: aliasing errors must be expected set NGY to  54 to avoid them
 WARNING: aliasing errors must be expected set NGZ to  54 to avoid them
 aliasing errors are usually negligible using standard VASP settings
 and one can safely disregard these warnings

 serial   3D FFT for wavefunctions
 parallel 3D FFT for charge:
    minimum data exchange during FFTs selected (reduces bandwidth)


 total amount of memory used by VASP on root node    82475. kBytes
========================================================================

   base      :      30000. kBytes
   nonl-proj :       1639. kBytes
   fftplans  :      17864. kBytes
   grid      :      31769. kBytes
   one-center:          9. kBytes
   wavefun   :       1194. kBytes
 
     INWAV:  cpu time    0.0095: real time    0.0095
 Broyden mixing: mesh for mixing (old mesh)
   NGX = 27   NGY = 27   NGZ = 27
  (NGX  = 80   NGY  = 80   NGZ  = 80)
  gives a total of  19683 points

 charge density for first step will be calculated from the start-wavefunctions


--------------------------------------------------------------------------------------------------------


 Maximum index for augmentation-charges         1567 (set IRDMAX)


--------------------------------------------------------------------------------------------------------


 initial charge from wavefunction
 First call to EWALD:  gamma=   0.222
 Maximum number of real-space cells 3x 3x 3
 Maximum number of reciprocal cells 3x 3x 3

 FEWALD executed in parallel
    FEWALD:  cpu time    0.0039: real time    0.0039


----------------------------------------- Iteration    1(   1)  ---------------------------------------


    POTLOK:  cpu time    0.7537: real time    0.7539
    SETDIJ:  cpu time    0.0135: real time    0.0135
     EDDAV:  cpu time    0.2672: real time    0.2672
       DOS:  cpu time    0.0004: real time    0.0004
    CHARGE:  cpu time    0.0637: real time    0.0637
    MIXING:  cpu time    0.0235: real time    0.0235
    --------------------------------------------
      LOOP:  cpu time    1.1266: real time    1.1275

 eigenvalue-minimisations  :    16
 total energy-change (2. order) :-0.1422668E+02  (-0.1618303E-03)
 number of electron       8.0000120 magnetization 
 augmentation part        0.6879210 magnetization 

 Broyden mixing:
  rms(total) = 0.32876E-02    rms(broyden)= 0.32828E-02
  rms(prec ) = 0.46678E-02
  weight for this iteration     100.00

 Free energy of the ion-electron system (eV)
  ---------------------------------------------------
  alpha Z        PSCENC =         0.43799080
  Ewald energy   TEWEN  =        24.54433861
  -Hartree energ DENC   =      -419.96417855
  -exchange      EXHF   =         0.00000000
  -V(xc)+E(xc)   XCENC  =        34.01556644
  PAW double counting   =       559.71383317     -561.77299540
  entropy T*S    EENTRO =        -0.00000000
  eigenvalues    EBANDS =      -108.42169669
  atomic energy  EATOM  =       457.22046137
  Solvation  Ediel_sol  =         0.00000000
  ---------------------------------------------------
  free energy    TOTEN  =       -14.22668026 eV

  energy without entropy =      -14.22668026  energy(sigma->0) =      -14.22668026


--------------------------------------------------------------------------------------------------------




----------------------------------------- Iteration    1(   2)  ---------------------------------------


    POTLOK:  cpu time    0.7322: real time    0.7323
    SETDIJ:  cpu time    0.0119: real time    0.0119
     EDDAV:  cpu time    0.4313: real time    0.4313
       DOS:  cpu time    0.0001: real time    0.0001
    --------------------------------------------
      LOOP:  cpu time    1.1783: real time    1.1795

 eigenvalue-minimisations  :    32
 total energy-change (2. order) : 0.2842083E-04  (-0.7275771E-05)
 number of electron       8.0000120 magnetization 
 augmentation part        0.6879210 magnetization 

 Free energy of the ion-electron system (eV)
  ---------------------------------------------------
  alpha Z        PSCENC =         0.43799080
  Ewald energy   TEWEN  =        24.54433861
  -Hartree energ DENC   =      -420.02577753
  -exchange      EXHF   =         0.00000000
  -V(xc)+E(xc)   XCENC  =        34.01886264
  PAW double counting   =       559.90063573     -561.95980499
  entropy T*S    EENTRO =        -0.00000000
  eigenvalues    EBANDS =      -108.36335846
  atomic energy  EATOM  =       457.22046137
  Solvation  Ediel_sol  =         0.00000000
  ---------------------------------------------------
  free energy    TOTEN  =       -14.22665184 eV

  energy without entropy =      -14.22665184  energy(sigma->0) =      -14.22665184


--------------------------------------------------------------------------------------------------------




 average (electrostatic) potential at core
  the test charge radii are     0.5201  0.7215
  (the norm of the test charge is              1.0000)
       1 -44.5086       2 -44.5051       3 -80.4630
 
 
 
 E-fermi :  -6.0570     XC(G=0):  -1.0198     alpha+bet : -0.2541


 k-point     1 :       0.0000    0.0000    0.0000
  band No.  band energies     occupation 
      1     -25.1326      2.00000
      2     -12.9192      2.00000
      3      -9.0999      2.00000
      4      -7.0300      2.00000
      5      -1.0821      0.00000
      6       1.0756      0.00000
      7       1.2098      0.00000
      8       1.7086      0.00000


--------------------------------------------------------------------------------------------------------


 soft charge-density along one line, spin component           1
         0         1         2         3         4         5         6         7         8         9
 total charge-density along one line
 
 pseudopotential strength for first ion, spin component:           1
 -2.382  -4.113  -0.002  -0.000   0.002
 -4.113  -7.015  -0.007  -0.000   0.005
 -0.002  -0.007  -0.318  -0.000  -0.004
 -0.000  -0.000  -0.000  -0.325   0.000
  0.002   0.005  -0.004   0.000  -0.321
 total augmentation occupancy for first ion, spin component:           1
  4.028  -0.895   0.577   0.000  -0.434
 -0.895   0.244  -0.123   0.000   0.098
  0.577  -0.123   0.090   0.000  -0.051
  0.000   0.000   0.000   0.038   0.000
 -0.434   0.098  -0.051   0.000   0.065


------------------------ aborting loop because EDIFF is reached ----------------------------------------


    CHARGE:  cpu time    0.0582: real time    0.0582
    FORLOC:  cpu time    0.0569: real time    0.0569
    FORNL :  cpu time    0.0379: real time    0.0379
    STRESS:  cpu time    0.2240: real time    0.2240
    FORCOR:  cpu time    0.7089: real time    0.7090
    FORHAR:  cpu time    0.1908: real time    0.1908
    MIXING:  cpu time    0.0262: real time    0.0262
    OFIELD:  cpu time    0.0002: real time    0.0002

  FORCE on cell =-STRESS in cart. coord.  units (eV):
  Direction    XX          YY          ZZ          XY          YZ          ZX
  --------------------------------------------------------------------------------------
  Alpha Z     0.43799     0.43799     0.43799
  Ewald      12.61779    66.79666   -54.87015    -0.00267    -0.00000    -0.00000
  Hartree   141.02131   150.36752   128.69495    -0.00003    -0.00000    -0.00000
  E(xc)     -36.11884   -35.92160   -36.41544    -0.00001    -0.00000    -0.00000
  Local    -243.02763  -291.43357  -183.90335     0.00108    -0.00000    -0.00000
  n-local   -31.30593   -30.44847   -31.19109     0.00019    -0.00000     0.00000
  augment     6.72243     5.76797     8.13742     0.00007     0.00000     0.00000
  Kinetic   148.88543   133.79366   168.26828     0.00104     0.00000    -0.00004
  Fock        0.00000     0.00000     0.00000     0.00000     0.00000     0.00000
  -------------------------------------------------------------------------------------
  Total      -0.76745    -0.63983    -0.84141     0.00000     0.00000     0.00000
  in kB      -2.40154    -2.00220    -2.63297     0.00000     0.00000     0.00000
  external pressure =       -2.35 kB  Pullay stress =        0.00 kB


 VOLUME and BASIS-vectors are now :
 -----------------------------------------------------------------------------
  energy-cutoff  :      400.00
  volume of cell :      512.00
      direct lattice vectors                 reciprocal lattice vectors
     8.000000000  0.000000000  0.000000000     0.125000000  0.000000000  0.000000000
     0.000000000  8.000000000  0.000000000     0.000000000  0.125000000  0.000000000
     0.000000000  0.000000000  8.000000000     0.000000000  0.000000000  0.125000000

  length of vectors
     8.000000000  8.000000000  8.000000000     0.125000000  0.125000000  0.125000000


 FORCES acting on ions
    electron-ion (+dipol)            ewald-force                    non-local-force                 convergence-correction
 -----------------------------------------------------------------------------------------------
   -.508E+02 0.709E+02 -.180E-06   0.557E+02 -.776E+02 -.329E-17   -.486E+01 0.672E+01 0.000E+00   -.212E-02 -.795E-02 0.627E-15
   -.508E+02 -.709E+02 0.191E-06   0.557E+02 0.776E+02 0.335E-17   -.486E+01 -.672E+01 0.000E+00   -.212E-02 0.795E-02 0.236E-15
   0.623E+02 0.354E-01 0.209E-05   -.111E+03 0.446E-02 0.762E-17   0.491E+02 0.000E+00 0.000E+00   -.139E+00 -.134E-05 0.340E-14
 -----------------------------------------------------------------------------------------------
   -.393E+02 0.358E-01 0.210E-05   0.000E+00 -.564E-16 0.767E-17   0.394E+02 0.000E+00 0.000E+00   -.144E+00 -.135E-05 0.427E-14
 
 
 POSITION                                       TOTAL-FORCE (eV/Angst)
 -----------------------------------------------------------------------------------
      4.29804      3.23227      4.00000         0.018490     -0.032330      0.000000
      4.29804      4.76773      4.00000         0.018490      0.032330      0.000000
      3.70196      3.99997      4.00000        -0.036980      0.000000      0.000000
 -----------------------------------------------------------------------------------
    total drift:                                0.005267      0.035828      0.000002


--------------------------------------------------------------------------------------------------------



  FREE ENERGIE OF THE ION-ELECTRON SYSTEM (eV)
  ---------------------------------------------------
  free  energy   TOTEN  =       -14.22665184 eV

  energy  without entropy=      -14.22665184  energy(sigma->0) =      -14.22665184
 


--------------------------------------------------------------------------------------------------------


    POTLOK:  cpu time    0.7220: real time    0.7221


--------------------------------------------------------------------------------------------------------


 stress matrix after NEB project (eV)
     -0.76745      0.00000      0.00000
      0.00000     -0.63983      0.00000
      0.00000      0.00000     -0.84141
  FORCES: max atom, RMS     0.037244    0.037156
  FORCE total and by dimension    0.064356    0.036980
  Stress total and by dimension    1.306264    0.841406
 Quasi-Newton relaxation of ions (Broydens 2nd method)
  g(Force)  = 0.200E-03   g(Stress)= 0.000E+00

 Reset! Starting new Quasi-Newton update for ions 


--------------------------------------------------------------------------------------------------------


    WAVPRE:  cpu time    0.1990: real time    0.1990
 FEWALD executed in parallel
    FEWALD:  cpu time    0.0007: real time    0.0007
    ORTHCH:  cpu time    0.0123: real time    0.0123
     LOOP+:  cpu time    7.1708: real time    7.1845


----------------------------------------- Iteration    2(   1)  ---------------------------------------


    POTLOK:  cpu time    0.7126: real time    0.7127
    SETDIJ:  cpu time    0.0125: real time    0.0125
     EDDAV:  cpu time    0.2471: real time    0.2473
       DOS:  cpu time    0.0002: real time    0.0002
    CHARGE:  cpu time    0.0575: real time    0.0575
    MIXING:  cpu time    0.0218: real time    0.0218
    --------------------------------------------
      LOOP:  cpu time    1.0540: real time    1.0543

 eigenvalue-minimisations  :    16
 total energy-change (2. order) : 0.1732497E-03  (-0.2644648E-02)
 number of electron       8.0000121 magnetization 
 augmentation part        0.6858380 magnetization 

 Broyden mixing:
  rms(total) = 0.61406E-02    rms(broyden)= 0.61306E-02
  rms(prec ) = 0.81064E-02
  weight for this iteration     100.00

 Free energy of the ion-electron system (eV)
  ---------------------------------------------------
  alpha Z        PSCENC =         0.43799080
  Ewald energy   TEWEN  =        24.00577473
  -Hartree energ DENC   =      -419.79422538
  -exchange      EXHF   =         0.00000000
  -V(xc)+E(xc)   XCENC  =        34.00809317
  PAW double counting   =       560.01908458     -562.07814307
  entropy T*S    EENTRO =        -0.00000000
  eigenvalues    EBANDS =      -108.04554320
  atomic energy  EATOM  =       457.22046137
  Solvation  Ediel_sol  =         0.00000000
  ---------------------------------------------------
  free energy    TOTEN  =       -14.22650701 eV

  energy without entropy =      -14.22650701  energy(sigma->0) =      -14.22650701


--------------------------------------------------------------------------------------------------------




----------------------------------------- Iteration    2(   2)  ---------------------------------------


    POTLOK:  cpu time    0.6961: real time    0.6961
    SETDIJ:  cpu time    0.0119: real time    0.0119
     EDDAV:  cpu time    0.3296: real time    0.3297
       DOS:  cpu time    0.0001: real time    0.0001
    --------------------------------------------
      LOOP:  cpu time    1.0404: real time    1.0415

 eigenvalue-minimisations  :    24
 total energy-change (2. order) : 0.2698950E-04  (-0.7679877E-04)
 number of electron       8.0000121 magnetization 
 augmentation part        0.6858380 magnetization 

 Free energy of the ion-electron system (eV)
  ---------------------------------------------------
  alpha Z        PSCENC =         0.43799080
  Ewald energy   TEWEN  =        24.00577473
  -Hartree energ DENC   =      -419.65630633
  -exchange      EXHF   =         0.00000000
  -V(xc)+E(xc)   XCENC  =        34.00017416
  PAW double counting   =       559.18728237     -561.24403584
  entropy T*S    EENTRO =        -0.00000000
  eigenvalues    EBANDS =      -108.17782128
  atomic energy  EATOM  =       457.22046137
  Solvation  Ediel_sol  =         0.00000000
  ---------------------------------------------------
  free energy    TOTEN  =       -14.22648002 eV

  energy without entropy =      -14.22648002  energy(sigma->0) =      -14.22648002


--------------------------------------------------------------------------------------------------------




 average (electrostatic) potential at core
  the test charge radii are     0.5201  0.7215
  (the norm of the test charge is              1.0000)
       1 -44.4572       2 -44.4537       3 -80.4531
 
 
 
 E-fermi :  -6.0383     XC(G=0):  -1.0123     alpha+bet : -0.2541


 k-point     1 :       0.0000    0.0000    0.0000
  band No.  band energies     occupation 
      1     -25.0913      2.00000
      2     -12.8768      2.00000
      3      -9.1013      2.00000
      4      -7.0195      2.00000
      5      -1.0835      0.00000
      6       1.0766      0.00000
      7       1.2064      0.00000
      8       1.7168      0.00000


--------------------------------------------------------------------------------------------------------


 soft charge-density along one line, spin component           1
         0         1         2         3         4         5         6         7         8         9
 total charge-density along one line
 
 pseudopotential strength for first ion, spin component:           1
 -2.381  -4.111  -0.002   0.000   0.002
 -4.111  -7.012  -0.007   0.000   0.005
 -0.002  -0.007  -0.319   0.000  -0.004
  0.000   0.000   0.000  -0.325  -0.000
  0.002   0.005  -0.004  -0.000  -0.321
 total augmentation occupancy for first ion, spin component:           1
  4.011  -0.890   0.570   0.000  -0.429
 -0.890   0.243  -0.122   0.000   0.098
  0.570  -0.122   0.088   0.000  -0.050
  0.000   0.000   0.000   0.038   0.000
 -0.429   0.098  -0.050   0.000   0.064


------------------------ aborting loop because EDIFF is reached ----------------------------------------


    CHARGE:  cpu time    0.0555: real time    0.0555
    FORLOC:  cpu time    0.0569: real time    0.0569
    FORNL :  cpu time    0.0378: real time    0.0378
    STRESS:  cpu time    0.2136: real time    0.2136
    FORCOR:  cpu time    0.6996: real time    0.6997
    FORHAR:  cpu time    0.1989: real time    0.1989
    MIXING:  cpu time    0.0236: real time    0.0236
    OFIELD:  cpu time    0.0002: real time    0.0002

  FORCE on cell =-STRESS in cart. coord.  units (eV):
  Direction    XX          YY          ZZ          XY          YZ          ZX
  --------------------------------------------------------------------------------------
  Alpha Z     0.43799     0.43799     0.43799
  Ewald      12.62801    66.25000   -54.87228    -0.00265     0.00000     0.00000
  Hartree   140.89934   150.18255   128.52568    -0.00003    -0.00000    -0.00000
  E(xc)     -36.09848   -35.90319   -36.39634    -0.00001    -0.00000    -0.00000
  Local    -242.91739  -290.89671  -183.70356     0.00108     0.00000     0.00000
  n-local   -31.23502   -30.37111   -31.15271     0.00018    -0.00000     0.00004
  augment     6.70966     5.76651     8.12677     0.00007    -0.00000     0.00000
  Kinetic   148.67961   133.71692   168.14747     0.00105     0.00000    -0.00011
  Fock        0.00000     0.00000     0.00000     0.00000     0.00000     0.00000
  -------------------------------------------------------------------------------------
  Total      -0.89627    -0.81703    -0.88698     0.00000     0.00000     0.00000
  in kB      -2.80466    -2.55670    -2.77560     0.00000     0.00000     0.00000
  external pressure =       -2.71 kB  Pullay stress =        0.00 kB


 VOLUME and BASIS-vectors are now :
 -----------------------------------------------------------------------------
  energy-cutoff  :      400.00
  volume of cell :      512.00
      direct lattice vectors                 reciprocal lattice vectors
     8.000000000  0.000000000  0.000000000     0.125000000  0.000000000  0.000000000
     0.000000000  8.000000000  0.000000000     0.000000000  0.125000000  0.000000000
     0.000000000  0.000000000  8.000000000     0.000000000  0.000000000  0.125000000

  length of vectors
     8.000000000  8.000000000  8.000000000     0.125000000  0.125000000  0.125000000


 FORCES acting on ions
    electron-ion (+dipol)            ewald-force                    non-local-force                 convergence-correction
 -----------------------------------------------------------------------------------------------
   -.507E+02 0.705E+02 -.196E-06   0.554E+02 -.771E+02 -.916E-17   -.481E+01 0.664E+01 0.000E+00   0.955E-04 0.598E-02 0.309E-12
   -.507E+02 -.705E+02 0.203E-06   0.554E+02 0.771E+02 0.110E-16   -.481E+01 -.664E+01 0.000E+00   0.962E-04 -.598E-02 0.308E-12
   0.619E+02 0.354E-01 0.165E-06   -.111E+03 0.440E-02 0.589E-17   0.490E+02 0.000E+00 0.000E+00   0.114E+00 -.156E-05 0.507E-11
 -----------------------------------------------------------------------------------------------
   -.395E+02 0.358E-01 0.171E-06   0.000E+00 -.564E-16 0.767E-17   0.393E+02 0.000E+00 0.000E+00   0.114E+00 -.168E-05 0.569E-11
 
 
 POSITION                                       TOTAL-FORCE (eV/Angst)
 -----------------------------------------------------------------------------------
      4.29893      3.23071      4.00000        -0.057937      0.067747      0.000000
      4.29893      4.76929      4.00000        -0.057937     -0.067747      0.000000
      3.70018      3.99997      4.00000         0.115874      0.000000      0.000000
 -----------------------------------------------------------------------------------
    total drift:                               -0.002744      0.035823      0.000000


--------------------------------------------------------------------------------------------------------



  FREE ENERGIE OF THE ION-ELECTRON SYSTEM (eV)
  ---------------------------------------------------
  free  energy   TOTEN  =       -14.22648002 eV

  energy  without entropy=      -14.22648002  energy(sigma->0) =      -14.22648002
 
 d Force =-0.1608005E-03[-0.521E-03, 0.200E-03]  d Energy =-0.1718183E-03 0.110E-04
 d Force = 0.5385657E+00[ 0.537E+00, 0.540E+00]  d Ewald  = 0.5385639E+00 0.178E-05


--------------------------------------------------------------------------------------------------------


    POTLOK:  cpu time    0.7138: real time    0.7138


--------------------------------------------------------------------------------------------------------


 stress matrix after NEB project (eV)
     -0.89627      0.00000      0.00000
      0.00000     -0.81703      0.00000
      0.00000      0.00000     -0.88698
  FORCES: max atom, RMS     0.115874    0.098859
  FORCE total and by dimension    0.171229    0.115874
  Stress total and by dimension    1.502525    0.896271
 Quasi-Newton relaxation of ions (Broydens 2nd method)
  g(Force)  = 0.141E-02   g(Stress)= 0.000E+00

 retain information from N=  1 steps
 eigenvalues of (default step * inverse Hessian matrix)
  average eigenvalue of G=   0.2714
 eigenvalue spectrum of G is  0.2714


--------------------------------------------------------------------------------------------------------


    WAVPRE:  cpu time    0.1929: real time    0.1929
 FEWALD executed in parallel
    FEWALD:  cpu time    0.0006: real time    0.0006
    ORTHCH:  cpu time    0.0120: real time    0.0120
     LOOP+:  cpu time    4.3285: real time    4.3338


----------------------------------------- Iteration    3(   1)  ---------------------------------------


    POTLOK:  cpu time    0.6948: real time    0.6949
    SETDIJ:  cpu time    0.0119: real time    0.0119
     EDDAV:  cpu time    0.2466: real time    0.2466
       DOS:  cpu time    0.0001: real time    0.0001
    CHARGE:  cpu time    0.0567: real time    0.0567
    MIXING:  cpu time    0.0214: real time    0.0214
    --------------------------------------------
      LOOP:  cpu time    1.0339: real time    1.0341

 eigenvalue-minimisations  :    16
 total energy-change (2. order) :-0.1803060E-03  (-0.1704167E-02)
 number of electron       8.0000121 magnetization 
 augmentation part        0.6878739 magnetization 

 Broyden mixing:
  rms(total) = 0.43491E-02    rms(broyden)= 0.43405E-02
  rms(prec ) = 0.58192E-02
  weight for this iteration     100.00

 Free energy of the ion-electron system (eV)
  ---------------------------------------------------
  alpha Z        PSCENC =         0.43799080
  Ewald energy   TEWEN  =        24.39553579
  -Hartree energ DENC   =      -419.82299092
  -exchange      EXHF   =         0.00000000
  -V(xc)+E(xc)   XCENC  =        34.00764719
  PAW double counting   =       558.74791703     -560.80379741
  entropy T*S    EENTRO =        -0.00000000
  eigenvalues    EBANDS =      -108.40945115
  atomic energy  EATOM  =       457.22046137
  Solvation  Ediel_sol  =         0.00000000
  ---------------------------------------------------
  free energy    TOTEN  =       -14.22668732 eV

  energy without entropy =      -14.22668732  energy(sigma->0) =      -14.22668732


--------------------------------------------------------------------------------------------------------




----------------------------------------- Iteration    3(   2)  ---------------------------------------


    POTLOK:  cpu time    0.7027: real time    0.7028
    SETDIJ:  cpu time    0.0118: real time    0.0118
     EDDAV:  cpu time    0.3306: real time    0.3306
       DOS:  cpu time    0.0001: real time    0.0001
    --------------------------------------------
      LOOP:  cpu time    1.0480: real time    1.0492

 eigenvalue-minimisations  :    24
 total energy-change (2. order) : 0.8641888E-05  (-0.4504229E-04)
 number of electron       8.0000121 magnetization 
 augmentation part        0.6878739 magnetization 

 Free energy of the ion-electron system (eV)
  ---------------------------------------------------
  alpha Z        PSCENC =         0.43799080
  Ewald energy   TEWEN  =        24.39553579
  -Hartree energ DENC   =      -419.92632604
  -exchange      EXHF   =         0.00000000
  -V(xc)+E(xc)   XCENC  =        34.01351932
  PAW double counting   =       559.14706636     -561.20431514
  entropy T*S    EENTRO =        -0.00000000
  eigenvalues    EBANDS =      -108.31061112
  atomic energy  EATOM  =       457.22046137
  Solvation  Ediel_sol  =         0.00000000
  ---------------------------------------------------
  free energy    TOTEN  =       -14.22667867 eV

  energy without entropy =      -14.22667867  energy(sigma->0) =      -14.22667867


--------------------------------------------------------------------------------------------------------




 average (electrostatic) potential at core
  the test charge radii are     0.5201  0.7215
  (the norm of the test charge is              1.0000)
       1 -44.4951       2 -44.4916       3 -80.4613
 
 
 
 E-fermi :  -6.0520     XC(G=0):  -1.0196     alpha+bet : -0.2541


 k-point     1 :       0.0000    0.0000    0.0000
  band No.  band energies     occupation 
      1     -25.1206      2.00000
      2     -12.9105      2.00000
      3      -9.0978      2.00000
      4      -7.0265      2.00000
      5      -1.0836      0.00000
      6       1.0754      0.00000
      7       1.2081      0.00000
      8       1.7103      0.00000


--------------------------------------------------------------------------------------------------------


 soft charge-density along one line, spin component           1
         0         1         2         3         4         5         6         7         8         9
 total charge-density along one line
 
 pseudopotential strength for first ion, spin component:           1
 -2.382  -4.112  -0.002  -0.000   0.002
 -4.112  -7.014  -0.007  -0.000   0.005
 -0.002  -0.007  -0.318  -0.000  -0.004
 -0.000  -0.000  -0.000  -0.325   0.000
  0.002   0.005  -0.004   0.000  -0.321
 total augmentation occupancy for first ion, spin component:           1
  4.025  -0.895   0.576   0.000  -0.433
 -0.895   0.244  -0.123   0.000   0.098
  0.576  -0.123   0.089   0.000  -0.051
  0.000   0.000   0.000   0.038   0.000
 -0.433   0.098  -0.051   0.000   0.064


------------------------ aborting loop because EDIFF is reached ----------------------------------------


    CHARGE:  cpu time    0.0552: real time    0.0552
    FORLOC:  cpu time    0.0569: real time    0.0569
    FORNL :  cpu time    0.0378: real time    0.0380
    STRESS:  cpu time    0.2128: real time    0.2128
    FORCOR:  cpu time    0.7021: real time    0.7022
    FORHAR:  cpu time    0.1854: real time    0.1855
    MIXING:  cpu time    0.0228: real time    0.0228
    OFIELD:  cpu time    0.0001: real time    0.0001

  FORCE on cell =-STRESS in cart. coord.  units (eV):
  Direction    XX          YY          ZZ          XY          YZ          ZX
  --------------------------------------------------------------------------------------
  Alpha Z     0.43799     0.43799     0.43799
  Ewald      12.54756    66.71870   -54.87076    -0.00266     0.00000     0.00000
  Hartree   140.97693   150.33747   128.65212    -0.00003    -0.00000    -0.00000
  E(xc)     -36.11320   -35.91579   -36.40948    -0.00001    -0.00000     0.00000
  Local    -242.92673  -291.36029  -183.84490     0.00108     0.00000    -0.00000
  n-local   -31.28751   -30.42986   -31.18215     0.00018    -0.00000     0.00005
  augment     6.72122     5.76751     8.13590     0.00007     0.00000    -0.00000
  Kinetic   148.85408   133.75500   168.24123     0.00104     0.00000    -0.00008
  Fock        0.00000     0.00000     0.00000     0.00000     0.00000     0.00000
  -------------------------------------------------------------------------------------
  Total      -0.78965    -0.68928    -0.84004     0.00000     0.00000     0.00000
  in kB      -2.47102    -2.15694    -2.62870     0.00000     0.00000     0.00000
  external pressure =       -2.42 kB  Pullay stress =        0.00 kB


 VOLUME and BASIS-vectors are now :
 -----------------------------------------------------------------------------
  energy-cutoff  :      400.00
  volume of cell :      512.00
      direct lattice vectors                 reciprocal lattice vectors
     8.000000000  0.000000000  0.000000000     0.125000000  0.000000000  0.000000000
     0.000000000  8.000000000  0.000000000     0.000000000  0.125000000  0.000000000
     0.000000000  0.000000000  8.000000000     0.000000000  0.000000000  0.125000000

  length of vectors
     8.000000000  8.000000000  8.000000000     0.125000000  0.125000000  0.125000000


 FORCES acting on ions
    electron-ion (+dipol)            ewald-force                    non-local-force                 convergence-correction
 -----------------------------------------------------------------------------------------------
   -.507E+02 0.708E+02 -.184E-06   0.556E+02 -.775E+02 -.899E-17   -.484E+01 0.670E+01 0.000E+00   -.420E-03 -.410E-02 -.166E-12
   -.507E+02 -.708E+02 0.195E-06   0.556E+02 0.775E+02 -.141E-16   -.484E+01 -.670E+01 0.000E+00   -.420E-03 0.410E-02 -.167E-12
   0.622E+02 0.354E-01 0.180E-05   -.111E+03 0.445E-02 0.307E-16   0.491E+02 0.000E+00 0.000E+00   -.717E-01 -.291E-06 -.268E-11
 -----------------------------------------------------------------------------------------------
   -.393E+02 0.358E-01 0.181E-05   0.000E+00 -.564E-16 0.767E-17   0.394E+02 0.888E-15 0.000E+00   -.726E-01 -.239E-06 -.301E-11
 
 
 POSITION                                       TOTAL-FORCE (eV/Angst)
 -----------------------------------------------------------------------------------
      4.29817      3.23159      4.00000        -0.001743     -0.000418      0.000000
      4.29817      4.76841      4.00000        -0.001743      0.000418      0.000000
      3.70169      3.99997      4.00000         0.003485      0.000000      0.000000
 -----------------------------------------------------------------------------------
    total drift:                                0.004155      0.035827      0.000002


--------------------------------------------------------------------------------------------------------



  FREE ENERGIE OF THE ION-ELECTRON SYSTEM (eV)
  ---------------------------------------------------
  free  energy   TOTEN  =       -14.22667867 eV

  energy  without entropy=      -14.22667867  energy(sigma->0) =      -14.22667867
 
 d Force = 0.1955589E-03[ 0.719E-05, 0.384E-03]  d Energy = 0.1986537E-03-0.309E-05
 d Force =-0.3897615E+00[-0.390E+00,-0.389E+00]  d Ewald  =-0.3897611E+00-0.423E-06


--------------------------------------------------------------------------------------------------------


    POTLOK:  cpu time    0.7163: real time    0.7163


--------------------------------------------------------------------------------------------------------


 stress matrix after NEB project (eV)
     -0.78965      0.00000      0.00000
      0.00000     -0.68928      0.00000
      0.00000      0.00000     -0.84004
  FORCES: max atom, RMS     0.003485    0.002488
  FORCE total and by dimension    0.004309    0.003485
  Stress total and by dimension    1.343255    0.840041
 Quasi-Newton relaxation of ions (Broydens 2nd method)
  g(Force)  = 0.896E-06   g(Stress)= 0.000E+00

 retain information from N=  1 steps
 eigenvalues of (default step * inverse Hessian matrix)
  average eigenvalue of G=   0.2765
 eigenvalue spectrum of G is  0.2765


--------------------------------------------------------------------------------------------------------


  
 reached required accuracy - stopping structural energy minimisation
 writing wavefunctions
     LOOP+:  cpu time    4.1179: real time    4.1239
    4ORBIT:  cpu time    0.0000: real time    0.0000

 total amount of memory used by VASP on root node    82475. kBytes
========================================================================

   base      :      30000. kBytes
   nonl-proj :       1639. kBytes
   fftplans  :      17864. kBytes
   grid      :      31769. kBytes
   one-center:          9. kBytes
   wavefun   :       1194. kBytes
 
  
  
 General timing and accounting informations for this job:
 ========================================================
  
                  Total CPU time used (sec):       20.944
                            User time (sec):       17.145
                          System time (sec):        3.799
                         Elapsed time (sec):       21.244
  
                   Maximum memory used (kb):      154644.
                   Average memory used (kb):           0.
  
                          Minor page faults:        73935
                          Major page faults:            0
                 Voluntary context switches:          760
