unknown system                          
           1
     8.000000    0.000000    0.000000
     0.000000    8.000000    0.000000
     0.000000    0.000000    8.000000
   H    O 
   2   1
Direct configuration=     1
   0.53725507  0.40403328  0.50000000
   0.53725507  0.59596672  0.50000000
   0.46274493  0.49999663  0.50000000
Direct configuration=     2
   0.53736658  0.40383832  0.50000000
   0.53736658  0.59616168  0.50000000
   0.46252192  0.49999663  0.50000000
Direct configuration=     3
   0.53727174  0.40394921  0.50000000
   0.53727174  0.59605079  0.50000000
   0.46271159  0.49999663  0.50000000
