 running on   96 total cores
 distrk:  each k-point on   96 cores,    1 groups
 distr:  one band on   48 cores,    2 groups
 using from now: INCAR     
 vasp.5.4.1 05Feb16 (build Apr 25 2018 11:37:45) complex                        
  
 POSCAR found :  2 types and      90 ions

 ----------------------------------------------------------------------------- 
|                                                                             |
|           W    W    AA    RRRRR   N    N  II  N    N   GGGG   !!!           |
|           W    W   A  A   R    R  NN   N  II  NN   N  G    G  !!!           |
|           W    W  A    A  R    R  N N  N  II  N N  N  G       !!!           |
|           W WW W  AAAAAA  RRRRR   N  N N  II  N  N N  G  GGG   !            |
|           WW  WW  A    A  R   R   N   NN  II  N   NN  G    G                |
|           W    W  A    A  R    R  N    N  II  N    N   GGGG   !!!           |
|                                                                             |
|      For optimal performance we recommend to set                            |
|        NCORE= 4 - approx SQRT( number of cores)                             |
|      NCORE specifies how many cores store one orbital (NPAR=cpu/NCORE).     |
|      This setting can  greatly improve the performance of VASP for DFT.     |
|      The default, NPAR=number of cores might be grossly inefficient         |
|      on modern multi-core architectures or massively parallel machines.     |
|      Do your own testing !!!!                                               |
|      Unfortunately you need to use the default for GW and RPA calculations. |
|      (for HF NCORE is supported but not extensively tested yet)             |
|                                                                             |
 ----------------------------------------------------------------------------- 

 LDA part: xc-table for Pade appr. of Perdew
 POSCAR found :  2 types and      90 ions
 POSCAR, INCAR and KPOINTS ok, starting setup
 WARNING: small aliasing (wrap around) errors must be expected
 FFT: planning ...
 WAVECAR not read
 entering main loop
       N       E                     dE             d eps       ncg     rms          rms(c)
RMM:   1     0.930967998263E+04    0.93097E+04   -0.21445E+05   288   0.179E+03
RMM:   2     0.340429124419E+04   -0.59054E+04   -0.63329E+04   288   0.398E+02
RMM:   3     0.115109813961E+04   -0.22532E+04   -0.27645E+04   288   0.225E+02
RMM:   4    -0.467755057149E+02   -0.11979E+04   -0.12297E+04   288   0.183E+02
RMM:   5    -0.561974156065E+03   -0.51520E+03   -0.47319E+03   288   0.114E+02
RMM:   6    -0.735454620014E+03   -0.17348E+03   -0.16327E+03   288   0.671E+01
RMM:   7    -0.784818295637E+03   -0.49364E+02   -0.48845E+02   288   0.365E+01
RMM:   8    -0.800881509588E+03   -0.16063E+02   -0.15637E+02   288   0.208E+01
RMM:   9    -0.808366775353E+03   -0.74853E+01   -0.73877E+01   592   0.115E+01
RMM:  10    -0.809236048196E+03   -0.86927E+00   -0.90513E+00   656   0.336E+00
RMM:  11    -0.809241995057E+03   -0.59469E-02   -0.22505E-01   622   0.640E-01
RMM:  12    -0.809245549808E+03   -0.35548E-02   -0.35345E-02   650   0.165E-01    0.788E+01
RMM:  13    -0.712430471815E+03    0.96815E+02   -0.44750E+02   576   0.353E+01    0.311E+01
RMM:  14    -0.712031462127E+03    0.39901E+00   -0.19387E+01   579   0.613E+00    0.157E+01
RMM:  15    -0.711611360596E+03    0.42010E+00   -0.29335E+00   576   0.421E+00    0.195E+00
RMM:  16    -0.711534762046E+03    0.76599E-01   -0.44558E-01   576   0.105E+00    0.977E-01
RMM:  17    -0.711571989602E+03   -0.37228E-01   -0.34147E-01   576   0.871E-01    0.121E+00
RMM:  18    -0.711557365168E+03    0.14624E-01   -0.93718E-02   576   0.555E-01    0.206E-01
RMM:  19    -0.711567956731E+03   -0.10592E-01   -0.19747E-02   576   0.250E-01    0.217E-01
RMM:  20    -0.711579692502E+03   -0.11736E-01   -0.35746E-03   576   0.105E-01    0.106E-01
RMM:  21    -0.711581535446E+03   -0.18429E-02   -0.20466E-03   576   0.726E-02    0.260E-02
RMM:  22    -0.711582260921E+03   -0.72548E-03   -0.11161E-04   577   0.190E-02    0.943E-03
RMM:  23    -0.711582438845E+03   -0.17792E-03   -0.46231E-05   511   0.801E-03    0.466E-03
RMM:  24    -0.711582520368E+03   -0.81523E-04   -0.15204E-05   532   0.583E-03    0.608E-03
RMM:  25    -0.711582569506E+03   -0.49137E-04   -0.12171E-05   543   0.544E-03    0.348E-03
RMM:  26    -0.711582596534E+03   -0.27028E-04   -0.43035E-06   393   0.302E-03    0.101E-03
RMM:  27    -0.711582606598E+03   -0.10064E-04   -0.19441E-06   363   0.162E-03    0.137E-03
RMM:  28    -0.711582608647E+03   -0.20499E-05   -0.61403E-07   338   0.124E-03    0.546E-04
RMM:  29    -0.711582609301E+03   -0.65357E-06   -0.13223E-07   206   0.543E-04
   1 F= -.71158261E+03 E0= -.71160270E+03  d E =-.711583E+03
 BRION: g(F)=  0.258E-04 g(S)=  0.000E+00
 reached required accuracy - stopping structural energy minimisation
Running "mpirun -np 96 vasp_neb"
