 vasp.5.4.1 05Feb16 (build Apr 25 2018 11:37:45) complex                        
  
 executed on             LinuxIFC date 2021.02.15  13:53:50
 running on   96 total cores
 distrk:  each k-point on   96 cores,    1 groups
 distr:  one band on NCORES_PER_BAND=  48 cores,    2 groups


--------------------------------------------------------------------------------------------------------


 INCAR:
 POTCAR:    PAW_PBE Si 05Jan2001                  
 POTCAR:    PAW_PBE O 08Apr2002                   

 ----------------------------------------------------------------------------- 
|                                                                             |
|           W    W    AA    RRRRR   N    N  II  N    N   GGGG   !!!           |
|           W    W   A  A   R    R  NN   N  II  NN   N  G    G  !!!           |
|           W    W  A    A  R    R  N N  N  II  N N  N  G       !!!           |
|           W WW W  AAAAAA  RRRRR   N  N N  II  N  N N  G  GGG   !            |
|           WW  WW  A    A  R   R   N   NN  II  N   NN  G    G                |
|           W    W  A    A  R    R  N    N  II  N    N   GGGG   !!!           |
|                                                                             |
|      For optimal performance we recommend to set                            |
|        NCORE= 4 - approx SQRT( number of cores)                             |
|      NCORE specifies how many cores store one orbital (NPAR=cpu/NCORE).     |
|      This setting can  greatly improve the performance of VASP for DFT.     |
|      The default, NPAR=number of cores might be grossly inefficient         |
|      on modern multi-core architectures or massively parallel machines.     |
|      Do your own testing !!!!                                               |
|      Unfortunately you need to use the default for GW and RPA calculations. |
|      (for HF NCORE is supported but not extensively tested yet)             |
|                                                                             |
 ----------------------------------------------------------------------------- 

 POTCAR:    PAW_PBE Si 05Jan2001                  
   VRHFIN =Si: s2p2                                                             
   LEXCH  = PE                                                                  
   EATOM  =   103.0669 eV,    7.5752 Ry                                         
                                                                                
   TITEL  = PAW_PBE Si 05Jan2001                                                
   LULTRA =        F    use ultrasoft PP ?                                      
   IUNSCR =        1    unscreen: 0-lin 1-nonlin 2-no                           
   RPACOR =    1.500    partial core radius                                     
   POMASS =   28.085; ZVAL   =    4.000    mass and valenz                      
   RCORE  =    1.900    outmost cutoff radius                                   
   RWIGS  =    2.480; RWIGS  =    1.312    wigner-seitz radius (au A)           
   ENMAX  =  245.345; ENMIN  =  184.009 eV                                      
   ICORE  =        2    local potential                                         
   LCOR   =        T    correct aug charges                                     
   LPAW   =        T    paw PP                                                  
   EAUG   =  322.069                                                            
   DEXC   =    0.000                                                            
   RMAX   =    1.950    core radius for proj-oper                               
   RAUG   =    1.300    factor for augmentation sphere                          
   RDEP   =    1.993    radius for radial grids                                 
   RDEPT  =    1.837    core radius for aug-charge                              
                                                                                
   Atomic configuration                                                         
    6 entries                                                                   
     n  l   j            E        occ.                                          
     1  0  0.50     -1785.8828   2.0000                                         
     2  0  0.50      -139.4969   2.0000                                         
     2  1  1.50       -95.5546   6.0000                                         
     3  0  0.50       -10.8127   2.0000                                         
     3  1  0.50        -4.0811   2.0000                                         
     3  2  1.50        -4.0817   0.0000                                         
   Description                                                                  
     l       E           TYP  RCUT    TYP  RCUT                                 
     0    -10.8127223     23  1.900                                             
     0     -7.6451159     23  1.900                                             
     1     -4.0811372     23  1.900                                             
     1      2.4879257     23  1.900                                             
     2     -4.0817478      7  1.900                                             
  local pseudopotential read in
  partial core-charges read in
  partial kinetic energy density read in
  atomic valenz-charges read in
  non local Contribution for L=           0  read in
    real space projection operators read in
  non local Contribution for L=           0  read in
    real space projection operators read in
  non local Contribution for L=           1  read in
    real space projection operators read in
  non local Contribution for L=           1  read in
    real space projection operators read in
    PAW grid and wavefunctions read in
 
   number of l-projection  operators is LMAX  =           4
   number of lm-projection operators is LMMAX =           8
 
 POTCAR:    PAW_PBE O 08Apr2002                   
   VRHFIN =O: s2p4                                                              
   LEXCH  = PE                                                                  
   EATOM  =   432.3788 eV,   31.7789 Ry                                         
                                                                                
   TITEL  = PAW_PBE O 08Apr2002                                                 
   LULTRA =        F    use ultrasoft PP ?                                      
   IUNSCR =        1    unscreen: 0-lin 1-nonlin 2-no                           
   RPACOR =    1.200    partial core radius                                     
   POMASS =   16.000; ZVAL   =    6.000    mass and valenz                      
   RCORE  =    1.520    outmost cutoff radius                                   
   RWIGS  =    1.550; RWIGS  =    0.820    wigner-seitz radius (au A)           
   ENMAX  =  400.000; ENMIN  =  300.000 eV                                      
   ICORE  =        2    local potential                                         
   LCOR   =        T    correct aug charges                                     
   LPAW   =        T    paw PP                                                  
   EAUG   =  605.392                                                            
   DEXC   =    0.000                                                            
   RMAX   =    1.553    core radius for proj-oper                               
   RAUG   =    1.300    factor for augmentation sphere                          
   RDEP   =    1.550    radius for radial grids                                 
   RDEPT  =    1.329    core radius for aug-charge                              
                                                                                
   Atomic configuration                                                         
    4 entries                                                                   
     n  l   j            E        occ.                                          
     1  0  0.50      -514.6923   2.0000                                         
     2  0  0.50       -23.9615   2.0000                                         
     2  1  0.50        -9.0305   4.0000                                         
     3  2  1.50        -9.5241   0.0000                                         
   Description                                                                  
     l       E           TYP  RCUT    TYP  RCUT                                 
     0    -23.9615318     23  1.200                                             
     0     -9.5240782     23  1.200                                             
     1     -9.0304911     23  1.520                                             
     1      8.1634956     23  1.520                                             
     2     -9.5240782      7  1.500                                             
  local pseudopotential read in
  partial core-charges read in
  partial kinetic energy density read in
  kinetic energy density of atom read in
  atomic valenz-charges read in
  non local Contribution for L=           0  read in
    real space projection operators read in
  non local Contribution for L=           0  read in
    real space projection operators read in
  non local Contribution for L=           1  read in
    real space projection operators read in
  non local Contribution for L=           1  read in
    real space projection operators read in
    PAW grid and wavefunctions read in
 
   number of l-projection  operators is LMAX  =           4
   number of lm-projection operators is LMMAX =           8
 
 Optimization of the real space projectors (new method)

 maximal supplied QI-value         = 19.84
 optimisation between [QCUT,QGAM] = [ 14.48, 28.97] = [ 58.75,235.01] Ry 
 Optimized for a Real-space Cutoff    1.04 Angstroem

   l    n(q)    QCUT    max X(q) W(low)/X(q) W(high)/X(q)  e(spline) 
   0      9    14.485   159.560    0.42E-03    0.96E-04    0.18E-06
   0      9    14.485   115.863    0.41E-03    0.95E-04    0.18E-06
   1      8    14.485    88.339    0.18E-03    0.28E-03    0.12E-06
   1      8    14.485    48.592    0.17E-03    0.27E-03    0.12E-06
 Optimization of the real space projectors (new method)

 maximal supplied QI-value         = 24.76
 optimisation between [QCUT,QGAM] = [ 14.36, 28.96] = [ 57.73,234.92] Ry 
 Optimized for a Real-space Cutoff    0.95 Angstroem

   l    n(q)    QCUT    max X(q) W(low)/X(q) W(high)/X(q)  e(spline) 
   0      8    14.358    20.381    0.16E-03    0.34E-03    0.84E-07
   0      8    14.358    15.268    0.17E-03    0.36E-03    0.94E-07
   1      8    14.358     5.964    0.41E-03    0.21E-03    0.13E-06
   1      8    14.358     5.382    0.36E-03    0.17E-03    0.11E-06
  PAW_PBE Si 05Jan2001                  :
 energy of atom  1       EATOM= -103.0669
 kinetic energy error for atom=    0.0002 (will be added to EATOM!!)
  PAW_PBE O 08Apr2002                   :
 energy of atom  2       EATOM= -432.3788
 kinetic energy error for atom=    0.0041 (will be added to EATOM!!)
 
 
 POSCAR: Si  O                                   
  positions in cartesian coordinates
  No initial velocities read in
 exchange correlation table for  LEXCH =        8
   RHO(1)=    0.500       N(1)  =     2000
   RHO(2)=  100.500       N(2)  =     4000

 VTST: version 3.2, (02/03/18)

 CHAIN: initializing optimizer
 
 OPT: Using VASP QUASI-newton optimizer
 CHAIN: Read ICHAIN            0
 
 POSCAR: Si  O                                   
  positions in cartesian coordinates
  No initial velocities read in
 


--------------------------------------------------------------------------------------------------------


 ion  position               nearest neighbor table
   1  0.433  0.099  0.176-  37 1.62  55 1.63  49 1.63  31 1.63  13 3.06  11 3.10  12 3.14
   2  0.901  0.334  0.176-  38 1.62  56 1.63  50 1.63  32 1.63  14 3.06  10 3.10  11 3.14
   3  0.666  0.567  0.176-  39 1.62  57 1.63  51 1.63  33 1.63  15 3.06  12 3.10  10 3.14
   4  0.099  0.433  0.824-  40 1.62  58 1.63  52 1.63  34 1.63  16 3.06   8 3.10   9 3.14
   5  0.334  0.901  0.824-  41 1.62  59 1.63  53 1.63  35 1.63  17 3.06   7 3.10   8 3.14
   6  0.567  0.666  0.824-  42 1.62  60 1.63  54 1.63  36 1.63  18 3.06   9 3.10   7 3.14
   7  0.567  0.901  0.824-  43 1.62  61 1.63  53 1.63  36 1.63  19 3.06   5 3.10   6 3.14
   8  0.099  0.666  0.824-  44 1.62  62 1.63  52 1.63  35 1.63  20 3.06   4 3.10   5 3.14
   9  0.334  0.433  0.824-  45 1.62  63 1.63  54 1.63  34 1.63  21 3.06   6 3.10   4 3.14
  10  0.901  0.567  0.176-  46 1.62  64 1.63  50 1.63  33 1.63  22 3.06   2 3.10   3 3.14
  11  0.666  0.099  0.176-  47 1.62  65 1.63  49 1.63  32 1.63  23 3.06   1 3.10   2 3.14
  12  0.433  0.334  0.176-  48 1.62  66 1.63  51 1.63  31 1.63  24 3.06   3 3.10   1 3.14
  13  0.434  0.099  0.417-  79 1.61  73 1.61  67 1.63  55 1.63   1 3.06  23 3.07  17 3.12  24 3.14

  14  0.901  0.335  0.417-  80 1.61  74 1.61  68 1.63  56 1.63   2 3.06  22 3.07  16 3.12  23 3.14

  15  0.665  0.566  0.417-  81 1.61  75 1.61  69 1.63  57 1.63   3 3.06  24 3.07  18 3.12  22 3.14

  16  0.099  0.434  0.583-  82 1.61  74 1.61  70 1.63  58 1.63   4 3.06  20 3.07  14 3.12  21 3.14

  17  0.335  0.901  0.583-  83 1.61  73 1.61  71 1.63  59 1.63   5 3.06  19 3.07  13 3.12  20 3.14

  18  0.566  0.665  0.583-  84 1.61  75 1.61  72 1.63  60 1.63   6 3.06  21 3.07  15 3.12  19 3.14

  19  0.566  0.901  0.583-  84 1.61  76 1.61  71 1.63  61 1.63   7 3.06  17 3.07  23 3.12  18 3.14

  20  0.099  0.665  0.583-  83 1.61  77 1.61  70 1.63  62 1.63   8 3.06  16 3.07  22 3.12  17 3.14

  21  0.335  0.434  0.583-  82 1.61  78 1.61  72 1.63  63 1.63   9 3.06  18 3.07  24 3.12  16 3.14

  22  0.901  0.566  0.417-  81 1.61  77 1.61  68 1.63  64 1.63  10 3.06  14 3.07  20 3.12  15 3.14

  23  0.665  0.099  0.417-  80 1.61  76 1.61  67 1.63  65 1.63  11 3.06  13 3.07  19 3.12  14 3.14

  24  0.434  0.335  0.417-  79 1.61  78 1.61  69 1.63  66 1.63  12 3.06  15 3.07  21 3.12  13 3.14

  25  0.000  0.239  0.000-  90 1.62  85 1.62  38 1.63  40 1.63
  26  0.761  0.761  0.000-  86 1.62  89 1.62  42 1.63  39 1.63
  27  0.239  0.000  0.000-  87 1.62  88 1.62  41 1.63  37 1.63
  28  0.000  0.761  0.000-  86 1.62  88 1.62  44 1.63  46 1.63
  29  0.239  0.239  0.000-  90 1.62  87 1.62  48 1.63  45 1.63
  30  0.761  0.000  0.000-  89 1.62  85 1.62  47 1.63  43 1.63
  31  0.471  0.236  0.170-  12 1.63   1 1.63
  32  0.764  0.236  0.170-   2 1.63  11 1.63
  33  0.764  0.529  0.170-   3 1.63  10 1.63
  34  0.236  0.471  0.830-   9 1.63   4 1.63
  35  0.236  0.764  0.830-   8 1.63   5 1.63
  36  0.529  0.764  0.830-   6 1.63   7 1.63
  37  0.321  0.022  0.102-   1 1.62  27 1.63
  38  0.978  0.299  0.102-   2 1.62  25 1.63
  39  0.701  0.679  0.102-   3 1.62  26 1.63
  40  0.022  0.321  0.898-   4 1.62  25 1.63
  41  0.299  0.978  0.898-   5 1.62  27 1.63
  42  0.679  0.701  0.898-   6 1.62  26 1.63
  43  0.679  0.978  0.898-   7 1.62  30 1.63
  44  0.022  0.701  0.898-   8 1.62  28 1.63
  45  0.299  0.321  0.898-   9 1.62  29 1.63
  46  0.978  0.679  0.102-  10 1.62  28 1.63
  47  0.701  0.022  0.102-  11 1.62  30 1.63
  48  0.321  0.299  0.102-  12 1.62  29 1.63
  49  0.542  0.085  0.138-   1 1.63  11 1.63
  50  0.915  0.458  0.138-  10 1.63   2 1.63
  51  0.542  0.458  0.138-   3 1.63  12 1.63
  52  0.085  0.542  0.862-   4 1.63   8 1.63
  53  0.458  0.915  0.862-   5 1.63   7 1.63
  54  0.458  0.542  0.862-   6 1.63   9 1.63
  55  0.397  0.051  0.296-  13 1.63   1 1.63
  56  0.949  0.346  0.296-  14 1.63   2 1.63
  57  0.654  0.603  0.296-  15 1.63   3 1.63
  58  0.051  0.397  0.704-  16 1.63   4 1.63
  59  0.346  0.949  0.704-  17 1.63   5 1.63
  60  0.603  0.654  0.704-  18 1.63   6 1.63
  61  0.603  0.949  0.704-  19 1.63   7 1.63
  62  0.051  0.654  0.704-  20 1.63   8 1.63
  63  0.346  0.397  0.704-  21 1.63   9 1.63
  64  0.949  0.603  0.296-  22 1.63  10 1.63
  65  0.654  0.051  0.296-  23 1.63  11 1.63
  66  0.397  0.346  0.296-  24 1.63  12 1.63
  67  0.571  0.142  0.435-  13 1.63  23 1.63
  68  0.858  0.429  0.435-  22 1.63  14 1.63
  69  0.571  0.429  0.435-  24 1.63  15 1.63
  70  0.142  0.571  0.565-  16 1.63  20 1.63
  71  0.429  0.858  0.565-  19 1.63  17 1.63
  72  0.429  0.571  0.565-  18 1.63  21 1.63
  73  0.355  0.000  0.500-  13 1.61  17 1.61
  74  0.000  0.355  0.500-  14 1.61  16 1.61
  75  0.645  0.645  0.500-  15 1.61  18 1.61
  76  0.645  0.000  0.500-  19 1.61  23 1.61
  77  0.000  0.645  0.500-  20 1.61  22 1.61
  78  0.355  0.355  0.500-  21 1.61  24 1.61
  79  0.413  0.207  0.437-  24 1.61  13 1.61
  80  0.793  0.207  0.437-  14 1.61  23 1.61
  81  0.793  0.587  0.437-  15 1.61  22 1.61
  82  0.207  0.413  0.563-  21 1.61  16 1.61
  83  0.207  0.793  0.563-  17 1.61  20 1.61
  84  0.587  0.793  0.563-  18 1.61  19 1.61
  85  0.888  0.112  0.977-  25 1.62  30 1.62
  86  0.888  0.776  0.977-  26 1.62  28 1.62
  87  0.224  0.112  0.977-  27 1.62  29 1.62
  88  0.112  0.888  0.023-  27 1.62  28 1.62
  89  0.776  0.888  0.023-  26 1.62  30 1.62
  90  0.112  0.224  0.023-  25 1.62  29 1.62
 
  LATTYP: Found a hexagonal cell.
 ALAT       =    13.3232624562
 C/A-ratio  =     0.9529831854
  
  Lattice vectors:
  
 A1 = (  13.3232624562,   0.0000000000,   0.0000000000)
 A2 = (  -6.6616312281,  11.5382837483,   0.0000000000)
 A3 = (   0.0000000000,   0.0000000000,  12.6968450955)


Analysis of symmetry for initial positions (statically):
=====================================================================
 Subroutine PRICEL returns:
 Original cell was already a primitive cell.
 

 Routine SETGRP: Setting up the symmetry group for a 
 hexagonal supercell.


 Subroutine GETGRP returns: Found 12 space group operations
 (whereof 12 operations were pure point group operations)
 out of a pool of 24 trial point group operations.


The static configuration has the point symmetry D_3d.


Analysis of symmetry for dynamics (positions and initial velocities):
=====================================================================
 Subroutine PRICEL returns:
 Original cell was already a primitive cell.
 

 Routine SETGRP: Setting up the symmetry group for a 
 hexagonal supercell.


 Subroutine GETGRP returns: Found 12 space group operations
 (whereof 12 operations were pure point group operations)
 out of a pool of 24 trial point group operations.


The dynamic configuration has the point symmetry D_3d.


 Subroutine INISYM returns: Found 12 space group operations
 (whereof 12 operations are pure point group operations),
 and found     1 'primitive' translations

 
 
 KPOINTS: KPOINTS created by Atomic Simulation Env

Automatic generation of k-mesh.
Space group operators:
 irot       det(A)        alpha          n_x          n_y          n_z        tau_x        tau_y        tau_z
    1     1.000000     0.000000     1.000000     0.000000     0.000000     0.000000     0.000000     0.000000
    2    -1.000000     0.000000     1.000000     0.000000     0.000000     0.000000     0.000000     0.000000
    3     1.000000   120.000000     0.000000     0.000000    -1.000000     0.000000     0.000000     0.000000
    4    -1.000000   120.000000     0.000000     0.000000    -1.000000     0.000000     0.000000     0.000000
    5     1.000000   120.000000     0.000000     0.000000     1.000000     0.000000     0.000000     0.000000
    6    -1.000000   120.000000     0.000000     0.000000     1.000000     0.000000     0.000000     0.000000
    7     1.000000   180.000000     1.000000    -0.000000     0.000000     0.000000     0.000000     0.000000
    8    -1.000000   180.000000     1.000000    -0.000000     0.000000     0.000000     0.000000     0.000000
    9     1.000000   180.000000     0.500000    -0.866025     0.000000     0.000000     0.000000     0.000000
   10    -1.000000   180.000000     0.500000    -0.866025     0.000000     0.000000     0.000000     0.000000
   11     1.000000   180.000000    -0.500000    -0.866025     0.000000     0.000000     0.000000     0.000000
   12    -1.000000   180.000000    -0.500000    -0.866025     0.000000     0.000000     0.000000     0.000000
 
 Subroutine IBZKPT returns following result:
 ===========================================
 
 Found      1 irreducible k-points:
 
 Following reciprocal coordinates:
            Coordinates               Weight
  0.000000  0.000000  0.000000      1.000000
 
 Following cartesian coordinates:
            Coordinates               Weight
  0.000000  0.000000  0.000000      1.000000
 


--------------------------------------------------------------------------------------------------------




 Dimension of arrays:
   k-points           NKPTS =      1   k-points in BZ     NKDIM =      1   number of bands    NBANDS=    288
   number of dos      NEDOS =    301   number of ions     NIONS =     90
   non local maximal  LDIM  =      4   non local SUM 2l+1 LMDIM =      8
   total plane-waves  NPLWV = 829440
   max r-space proj   IRMAX =   2027   max aug-charges    IRDMAX=  14406
   dimension x,y,z NGX =    96 NGY =   96 NGZ =   90
   dimension x,y,z NGXF=   192 NGYF=  192 NGZF=  180
   support grid    NGXF=   192 NGYF=  192 NGZF=  180
   ions per type =              30  60
 NGX,Y,Z   is equivalent  to a cutoff of  11.98, 11.98, 11.78 a.u.
 NGXF,Y,Z  is equivalent  to a cutoff of  23.96, 23.96, 23.57 a.u.


 I would recommend the setting:
   dimension x,y,z NGX =    92 NGY =   92 NGZ =   88
 SYSTEM =  unknown system                          
 POSCAR =  Si  O                                   

 Startparameter for this run:
   NWRITE =      2    write-flag & timer
   PREC   = normal    normal or accurate (medium, high low for compatibility)
   ISTART =      0    job   : 0-new  1-cont  2-samecut
   ICHARG =      2    charge: 1-file 2-atom 10-const
   ISPIN  =      1    spin polarized calculation?
   LNONCOLLINEAR =      F non collinear calculations
   LSORBIT =      F    spin-orbit coupling
   INIWAV =      1    electr: 0-lowe 1-rand  2-diag
   LASPH  =      F    aspherical Exc in radial PAW
   METAGGA=      F    non-selfconsistent MetaGGA calc.

 Electronic Relaxation 1
   ENCUT  =  800.0 eV  58.80 Ry    7.67 a.u.  30.73 30.73 29.28*2*pi/ulx,y,z
   ENINI  =  800.0     initial cutoff
   ENAUG  =  605.4 eV  augmentation charge cutoff
   NELM   =     60;   NELMIN=  2; NELMDL=-12     # of ELM steps 
   EDIFF  = 0.1E-05   stopping-criterion for ELM
   LREAL  =      T    real-space projection
   NLSPLINE    = F    spline interpolate recip. space projectors
   LCOMPAT=      F    compatible to vasp.4.4
   GGA_COMPAT  = T    GGA compatible to vasp.4.4-vasp.4.6
   LMAXPAW     = -100 max onsite density
   LMAXMIX     =    2 max onsite mixed and CHGCAR
   VOSKOWN=      0    Vosko Wilk Nusair interpolation
   ROPT   =   -0.00050  -0.00050
 Ionic relaxation
   EDIFFG = -.1E-01   stopping-criterion for IOM
   NSW    =   1000    number of steps for IOM
   NBLOCK =      1;   KBLOCK =   1000    inner block; outer block 
   IBRION =      1    ionic relax: 0-MD 1-quasi-New 2-CG
   NFREE  =      0    steps in history (QN), initial steepest desc. (CG)
   ISIF   =      2    stress and relaxation
   IWAVPR =     11    prediction:  0-non 1-charg 2-wave 3-comb
   ISYM   =      2    0-nonsym 1-usesym 2-fastsym
   LCORR  =      T    Harris-Foulkes like correction to forces

   POTIM  = 0.5000    time-step for ionic-motion
   TEIN   =    0.0    initial temperature
   TEBEG  =    0.0;   TEEND  =   0.0 temperature during run
   SMASS  =  -3.00    Nose mass-parameter (am)
   estimated Nose-frequenzy (Omega)   =  0.10E-29 period in steps =****** mass=  -0.406E-26a.u.
   SCALEE = 1.0000    scale energy and forces
   NPACO  =    256;   APACO  = 16.0  distance and # of slots for P.C.
   PSTRESS=    0.0 pullay stress

  Mass of Ions in am
   POMASS =  28.09 16.00
  Ionic Valenz
   ZVAL   =   4.00  6.00
  Atomic Wigner-Seitz radii
   RWIGS  =  -1.00 -1.00
  virtual crystal weights 
   VCA    =   1.00  1.00
   NELECT =     480.0000    total number of electrons
   NUPDOWN=      -1.0000    fix difference up-down

 DOS related values:
   EMIN   =  10.00;   EMAX   =-10.00  energy-range for DOS
   EFERMI =   0.00
   ISMEAR =     1;   SIGMA  =   0.10  broadening in eV -4-tet -1-fermi 0-gaus

 Electronic relaxation 2 (details)
   IALGO  =     48    algorithm
   LDIAG  =      T    sub-space diagonalisation (order eigenvalues)
   LSUBROT=      F    optimize rotation matrix (better conditioning)
   TURBO    =      0    0=normal 1=particle mesh
   IRESTART =      0    0=no restart 2=restart with 2 vectors
   NREBOOT  =      0    no. of reboots
   NMIN     =      0    reboot dimension
   EREF     =   0.00    reference energy to select bands
   IMIX   =      4    mixing-type and parameters
     AMIX     =   0.40;   BMIX     =  1.00
     AMIX_MAG =   1.60;   BMIX_MAG =  1.00
     AMIN     =   0.10
     WC   =   100.;   INIMIX=   1;  MIXPRE=   1;  MAXMIX= -45

 Intra band minimization:
   WEIMIN = 0.0010     energy-eigenvalue tresh-hold
   EBREAK =  0.87E-09  absolut break condition
   DEPER  =   0.30     relativ break condition  

   TIME   =   0.40     timestep for ELM

  volume/ion in A,a.u.               =      21.69       146.35
  Fermi-wavevector in a.u.,A,eV,Ry     =   1.025666  1.938228 14.313208  1.051991
  Thomas-Fermi vector in A             =   2.159518
 
 Write flags
   LWAVE  =      F    write WAVECAR
   LCHARG =      F    write CHGCAR
   LVTOT  =      F    write LOCPOT, total local potential
   LVHAR  =      F    write LOCPOT, Hartree potential only
   LELF   =      F    write electronic localiz. function (ELF)
   LORBIT =      0    0 simple, 1 ext, 2 COOP (PROOUT)


 Dipole corrections
   LMONO  =      F    monopole corrections only (constant potential shift)
   LDIPOL =      F    correct potential (dipole corrections)
   IDIPOL =      0    1-x, 2-y, 3-z, 4-all directions 
   EPSILON=  1.0000000 bulk dielectric constant

 Exchange correlation treatment:
   GGA     =    --    GGA type
   LEXCH   =     8    internal setting for exchange type
   VOSKOWN=      0    Vosko Wilk Nusair interpolation
   LHFCALC =     F    Hartree Fock is set to
   LHFONE  =     F    Hartree Fock one center treatment
   AEXX    =    0.0000 exact exchange contribution

 Linear response parameters
   LEPSILON=     F    determine dielectric tensor
   LRPA    =     F    only Hartree local field effects (RPA)
   LNABLA  =     F    use nabla operator in PAW spheres
   LVEL    =     F    velocity operator in full k-point grid
   LINTERFAST=   F  fast interpolation
   KINTER  =     0    interpolate to denser k-point grid
   CSHIFT  =0.1000    complex shift for real part using Kramers Kronig
   OMEGAMAX=  -1.0    maximum frequency
   DEG_THRESHOLD= 0.2000000E-02 threshold for treating states as degnerate
   RTIME   =    0.100 relaxation time in fs

 Orbital magnetization related:
   ORBITALMAG=     F  switch on orbital magnetization
   LCHIMAG   =     F  perturbation theory with respect to B field
   DQ        =  0.001000  dq finite difference perturbation B field



--------------------------------------------------------------------------------------------------------


 quasi-Newton-method for relaxation of ions
 charge density and potential will be updated during run
 non-spin polarized calculation
 RMM-DIIS sequential band-by-band
 perform sub-space diagonalisation
    before iterative eigenvector-optimisation
 modified Broyden-mixing scheme, WC =      100.0
 initial mixing is a Kerker type mixing with AMIX =  0.4000 and BMIX =      1.0000
 Hartree-type preconditioning will be used
 using additional bands           48
 real space projection scheme for non local part
 use partial core corrections
 calculate Harris-corrections to forces 
   (improved forces if not selfconsistent)
 use gradient corrections 
 use of overlap-Matrix (Vanderbilt PP)
 Methfessel and Paxton  Order N= 1 SIGMA  =   0.10


--------------------------------------------------------------------------------------------------------


  energy-cutoff  :      800.00
  volume of cell :     1951.86
      direct lattice vectors                 reciprocal lattice vectors
    13.323262456  0.000000000  0.000000000     0.075056692  0.043334001  0.000000000
    -6.661631228 11.538283748  0.000000000     0.000000000  0.086668002  0.000000000
     0.000000000  0.000000000 12.696845095     0.000000000  0.000000000  0.078759723

  length of vectors
    13.323262456 13.323262456 12.696845095     0.086668002  0.086668002  0.078759723


 
 k-points in units of 2pi/SCALE and weight: KPOINTS created by Atomic Simulation Env
   0.00000000  0.00000000  0.00000000       1.000
 
 k-points in reciprocal lattice and weights: KPOINTS created by Atomic Simulation Env
   0.00000000  0.00000000  0.00000000       1.000
 
 position of ions in fractional coordinates (direct lattice) 
   0.43292568  0.09859126  0.17591613
   0.90140874  0.33433442  0.17591613
   0.66566558  0.56707432  0.17591613
   0.09859126  0.43292568  0.82408387
   0.33433442  0.90140874  0.82408387
   0.56707432  0.66566558  0.82408387
   0.56707432  0.90140874  0.82408387
   0.09859126  0.66566558  0.82408387
   0.33433442  0.43292568  0.82408387
   0.90140874  0.56707432  0.17591613
   0.66566558  0.09859126  0.17591613
   0.43292568  0.33433442  0.17591613
   0.43438847  0.09949151  0.41655966
   0.90050849  0.33489696  0.41655966
   0.66510304  0.56561153  0.41655966
   0.09949151  0.43438847  0.58344034
   0.33489696  0.90050849  0.58344034
   0.56561153  0.66510304  0.58344034
   0.56561153  0.90050849  0.58344034
   0.09949151  0.66510304  0.58344034
   0.33489696  0.43438847  0.58344034
   0.90050849  0.56561153  0.41655966
   0.66510304  0.09949151  0.41655966
   0.43438847  0.33489696  0.41655966
   0.00000000  0.23874840  0.00000000
   0.76125160  0.76125160  0.00000000
   0.23874840  0.00000000  0.00000000
   0.00000000  0.76125160  0.00000000
   0.23874840  0.23874840  0.00000000
   0.76125160  0.00000000  0.00000000
   0.47129336  0.23564668  0.16979730
   0.76435332  0.23564668  0.16979730
   0.76435332  0.52870664  0.16979730
   0.23564668  0.47129336  0.83020270
   0.23564668  0.76435332  0.83020270
   0.52870664  0.76435332  0.83020270
   0.32085970  0.02204549  0.10217135
   0.97795451  0.29881422  0.10217135
   0.70118578  0.67914030  0.10217135
   0.02204549  0.32085970  0.89782865
   0.29881422  0.97795451  0.89782865
   0.67914030  0.70118578  0.89782865
   0.67914030  0.97795451  0.89782865
   0.02204549  0.70118578  0.89782865
   0.29881422  0.32085970  0.89782865
   0.97795451  0.67914030  0.10217135
   0.70118578  0.02204549  0.10217135
   0.32085970  0.29881422  0.10217135
   0.54232529  0.08465058  0.13762448
   0.91534942  0.45767471  0.13762448
   0.54232529  0.45767471  0.13762448
   0.08465058  0.54232529  0.86237552
   0.45767471  0.91534942  0.86237552
   0.45767471  0.54232529  0.86237552
   0.39737178  0.05126073  0.29645471
   0.94873927  0.34611105  0.29645471
   0.65388895  0.60262822  0.29645471
   0.05126073  0.39737178  0.70354529
   0.34611105  0.94873927  0.70354529
   0.60262822  0.65388895  0.70354529
   0.60262822  0.94873927  0.70354529
   0.05126073  0.65388895  0.70354529
   0.34611105  0.39737178  0.70354529
   0.94873927  0.60262822  0.29645471
   0.65388895  0.05126073  0.29645471
   0.39737178  0.34611105  0.29645471
   0.57098029  0.14196059  0.43502286
   0.85803941  0.42901971  0.43502286
   0.57098029  0.42901971  0.43502286
   0.14196059  0.57098029  0.56497714
   0.42901971  0.85803941  0.56497714
   0.42901971  0.57098029  0.56497714
   0.35470239  0.00000000  0.50000000
   0.00000000  0.35470239  0.50000000
   0.64529761  0.64529761  0.50000000
   0.64529761  0.00000000  0.50000000
   0.00000000  0.64529761  0.50000000
   0.35470239  0.35470239  0.50000000
   0.41324375  0.20662187  0.43748327
   0.79337813  0.20662187  0.43748327
   0.79337813  0.58675625  0.43748327
   0.20662187  0.41324375  0.56251673
   0.20662187  0.79337813  0.56251673
   0.58675625  0.79337813  0.56251673
   0.88780953  0.11219047  0.97731109
   0.88780953  0.77561907  0.97731109
   0.22438093  0.11219047  0.97731109
   0.11219047  0.88780953  0.02268891
   0.77561907  0.88780953  0.02268891
   0.11219047  0.22438093  0.02268891
 
 position of ions in cartesian coordinates  (Angst):
   5.11120386  1.13757388  2.23357990
   9.78249265  3.85764545  2.23357990
   5.09119718  6.54306442  2.23357990
  -1.57043405  4.99521933 10.46326520
  -1.55042737 10.40070987 10.46326520
   3.12086142  7.68063830 10.46326520
   1.55042737 10.40070987 10.46326520
  -3.12086142  7.68063830 10.46326520
   1.57043405  4.99521933 10.46326520
   8.23206528  6.54306442  2.23357990
   8.21205860  1.13757388  2.23357990
   3.54076981  3.85764545  2.23357990
   5.12469590  1.14796128  5.28899346
   9.76675088  3.86413620  5.28899346
   5.09344690  6.52618627  5.28899346
  -1.56818432  5.01209748  7.40785163
  -1.53693533 10.39032247  7.40785163
   3.10511965  7.67414755  7.40785163
   1.53693533 10.39032247  7.40785163
  -3.10511965  7.67414755  7.40785163
   1.56818432  5.01209748  7.40785163
   8.22981555  6.52618627  5.28899346
   8.19856655  1.14796128  5.28899346
   3.55651158  3.86413620  5.28899346
  -1.59045380  2.75474679  0.00000000
   5.07117743  8.78353696  0.00000000
   3.18090760  0.00000000  0.00000000
  -5.07117743  8.78353696  0.00000000
   1.59045380  2.75474679  0.00000000
  10.14235486  0.00000000  0.00000000
   4.70937385  2.71895826  2.15588999
   8.61388861  2.71895826  2.15588999
   6.66163123  6.10036723  2.15588999
   0.00000000  5.43791651 10.54095510
  -1.95225738  8.81932549 10.54095510
   1.95225738  8.81932549 10.54095510
   4.12803916  0.25436708  1.29725386
  11.03895453  3.44780324  1.29725386
   4.81790000  7.83611343  1.29725386
  -1.84373123  3.70217032 11.39959124
  -2.53359207 11.28391667 11.39959124
   4.37732330  8.09048051 11.39959124
   2.53359207 11.28391667 11.39959124
  -4.37732330  8.09048051 11.39959124
   1.84373123  3.70217032 11.39959124
   8.50536246  7.83611343  1.29725386
   9.19522330  0.25436708  1.29725386
   2.28430793  3.44780324  1.29725386
   6.66163123  0.97672237  1.74739670
   9.14658046  5.28078069  1.74739670
   4.17668200  5.28078069  1.74739670
  -2.48494923  6.25750306 10.94944839
   0.00000000 10.56156138 10.94944839
   2.48494923  6.25750306 10.94944839
   4.95280840  0.59146082  3.76403951
  10.33463816  3.99352748  3.76403951
   4.69744713  6.95329544  3.76403951
  -1.96418410  4.58498831  8.93280558
  -1.70882283 10.94682293  8.93280558
   3.67300693  7.54475626  8.93280558
   1.70882283 10.94682293  8.93280558
  -3.67300693  7.54475626  8.93280558
   1.96418410  4.58498831  8.93280558
   8.62581533  6.95329544  3.76403951
   8.37045406  0.59146082  3.76403951
   2.98862430  3.99352748  3.76403951
   6.66163123  1.63798154  5.52341783
   8.57391322  4.95015110  5.52341783
   4.74934924  4.95015110  5.52341783
  -1.91228199  6.58813264  7.17342727
   0.00000000  9.90030221  7.17342727
   1.91228199  6.58813264  7.17342727
   4.72579298  0.00000000  6.34842255
  -2.36289649  4.09265677  6.34842255
   4.29873474  7.44562698  6.34842255
   8.59746948  0.00000000  6.34842255
  -4.29873474  7.44562698  6.34842255
   2.36289649  4.09265677  6.34842255
   4.12931616  2.38406180  5.55465726
   9.19394630  2.38406180  5.55465726
   6.66163123  6.77016015  5.55465726
   0.00000000  4.76812359  7.14218783
  -2.53231507  9.15422195  7.14218783
   2.53231507  9.15422195  7.14218783
  11.08114793  1.29448543 12.40876752
   6.66163123  8.94931290 12.40876752
   2.24211453  1.29448543 12.40876752
  -4.41951670 10.24379832  0.28807758
   4.41951670 10.24379832  0.28807758
   0.00000000  2.58897085  0.28807758
 


--------------------------------------------------------------------------------------------------------


 k-point  1 :   0.0000 0.0000 0.0000  plane waves:  100349

 maximum and minimum number of plane-waves per node :      2094     2087

 maximum number of plane-waves:    100349
 maximum index in each direction: 
   IXMAX=   30   IYMAX=   30   IZMAX=   29
   IXMIN=  -30   IYMIN=  -30   IZMIN=  -29

 WARNING: aliasing errors must be expected set NGX to 122 to avoid them
 WARNING: aliasing errors must be expected set NGY to 122 to avoid them
 WARNING: aliasing errors must be expected set NGZ to 118 to avoid them
 aliasing errors are usually negligible using standard VASP settings
 and one can safely disregard these warnings

 real space projection operators:
  total allocation   :       9105.00 KBytes
  max/ min on nodes  :        217.50        153.88


 parallel 3D FFT for wavefunctions:
    minimum data exchange during FFTs selected (reduces bandwidth)
 parallel 3D FFT for charge:
    minimum data exchange during FFTs selected (reduces bandwidth)


 total amount of memory used by VASP on root node    45650. kBytes
========================================================================

   base      :      30000. kBytes
   nonlr-proj:       3299. kBytes
   fftplans  :       2894. kBytes
   grid      :       4595. kBytes
   one-center:          6. kBytes
   wavefun   :       4856. kBytes
 
     INWAV:  cpu time    0.0001: real time    0.0001
 Broyden mixing: mesh for mixing (old mesh)
   NGX = 61   NGY = 61   NGZ = 59
  (NGX  =192   NGY  =192   NGZ  =180)
  gives a total of 219539 points

 initial charge density was supplied:
 charge density of overlapping atoms calculated
 number of electron     480.0000000 magnetization 
 keeping initial charge density in first step


--------------------------------------------------------------------------------------------------------


 Maximum index for non-local projection operator          175
 Maximum index for augmentation-charges          629 (set IRDMAX)


--------------------------------------------------------------------------------------------------------


 First call to EWALD:  gamma=   0.142
 Maximum number of real-space cells 3x 3x 3
 Maximum number of reciprocal cells 3x 3x 3

 FEWALD executed in parallel
    FEWALD:  cpu time    0.0354: real time    0.0355


----------------------------------------- Iteration    1(   1)  ---------------------------------------


    POTLOK:  cpu time    0.5811: real time    0.5832
    SETDIJ:  cpu time    0.0105: real time    0.0105
    EDDIAG:  cpu time    1.1052: real time    1.1097
  RMM-DIIS:  cpu time    1.1056: real time    1.1119
    ORTHCH:  cpu time    0.5813: real time    0.5833
       DOS:  cpu time    0.0120: real time    0.0121
    --------------------------------------------
      LOOP:  cpu time    3.4003: real time    3.4219

 eigenvalue-minimisations  :   288
 total energy-change (2. order) : 0.9309680E+04  (-0.2144458E+05)
 number of electron     480.0000000 magnetization 
 augmentation part      480.0000000 magnetization 

 Free energy of the ion-electron system (eV)
  ---------------------------------------------------
  alpha Z        PSCENC =       403.80486096
  Ewald energy   TEWEN  =     -3341.30016866
  -Hartree energ DENC   =    -22622.68833799
  -exchange      EXHF   =         0.00000000
  -V(xc)+E(xc)   XCENC  =      1406.22765257
  PAW double counting   =     23436.68260187   -23016.80438707
  entropy T*S    EENTRO =        -0.00494516
  eigenvalues    EBANDS =      4009.28094767
  atomic energy  EATOM  =     29034.48175847
  Solvation  Ediel_sol  =         0.00000000
  ---------------------------------------------------
  free energy    TOTEN  =      9309.67998263 eV

  energy without entropy =     9309.68492780  energy(sigma->0) =     9309.68163102


--------------------------------------------------------------------------------------------------------




----------------------------------------- Iteration    1(   2)  ---------------------------------------


    EDDIAG:  cpu time    1.0754: real time    1.0795
  RMM-DIIS:  cpu time    0.6967: real time    0.7019
    ORTHCH:  cpu time    0.5449: real time    0.5470
       DOS:  cpu time    0.0132: real time    0.0133
    --------------------------------------------
      LOOP:  cpu time    2.3592: real time    2.3736

 eigenvalue-minimisations  :   288
 total energy-change (2. order) :-0.5905389E+04  (-0.6332886E+04)
 number of electron     480.0000000 magnetization 
 augmentation part      480.0000000 magnetization 

 Free energy of the ion-electron system (eV)
  ---------------------------------------------------
  alpha Z        PSCENC =       403.80486096
  Ewald energy   TEWEN  =     -3341.30016866
  -Hartree energ DENC   =    -22622.68833799
  -exchange      EXHF   =         0.00000000
  -V(xc)+E(xc)   XCENC  =      1406.22765257
  PAW double counting   =     23436.68260187   -23016.80438707
  entropy T*S    EENTRO =         0.01848991
  eigenvalues    EBANDS =     -1896.13122585
  atomic energy  EATOM  =     29034.48175847
  Solvation  Ediel_sol  =         0.00000000
  ---------------------------------------------------
  free energy    TOTEN  =      3404.29124419 eV

  energy without entropy =     3404.27275428  energy(sigma->0) =     3404.28508089


--------------------------------------------------------------------------------------------------------




----------------------------------------- Iteration    1(   3)  ---------------------------------------


    EDDIAG:  cpu time    1.0751: real time    1.0790
  RMM-DIIS:  cpu time    0.6932: real time    0.6977
    ORTHCH:  cpu time    0.5753: real time    0.5770
       DOS:  cpu time    0.0141: real time    0.0141
    --------------------------------------------
      LOOP:  cpu time    2.4019: real time    2.4180

 eigenvalue-minimisations  :   288
 total energy-change (2. order) :-0.2253193E+04  (-0.2764471E+04)
 number of electron     480.0000000 magnetization 
 augmentation part      480.0000000 magnetization 

 Free energy of the ion-electron system (eV)
  ---------------------------------------------------
  alpha Z        PSCENC =       403.80486096
  Ewald energy   TEWEN  =     -3341.30016866
  -Hartree energ DENC   =    -22622.68833799
  -exchange      EXHF   =         0.00000000
  -V(xc)+E(xc)   XCENC  =      1406.22765257
  PAW double counting   =     23436.68260187   -23016.80438707
  entropy T*S    EENTRO =        -0.00434484
  eigenvalues    EBANDS =     -4149.30149568
  atomic energy  EATOM  =     29034.48175847
  Solvation  Ediel_sol  =         0.00000000
  ---------------------------------------------------
  free energy    TOTEN  =      1151.09813961 eV

  energy without entropy =     1151.10248445  energy(sigma->0) =     1151.09958789


--------------------------------------------------------------------------------------------------------




----------------------------------------- Iteration    1(   4)  ---------------------------------------


    EDDIAG:  cpu time    0.9550: real time    1.0005
  RMM-DIIS:  cpu time    0.6919: real time    0.6946
    ORTHCH:  cpu time    0.5964: real time    0.5982
       DOS:  cpu time    0.0059: real time    0.0059
    --------------------------------------------
      LOOP:  cpu time    2.3043: real time    2.4006

 eigenvalue-minimisations  :   288
 total energy-change (2. order) :-0.1197874E+04  (-0.1229695E+04)
 number of electron     480.0000000 magnetization 
 augmentation part      480.0000000 magnetization 

 Free energy of the ion-electron system (eV)
  ---------------------------------------------------
  alpha Z        PSCENC =       403.80486096
  Ewald energy   TEWEN  =     -3341.30016866
  -Hartree energ DENC   =    -22622.68833799
  -exchange      EXHF   =         0.00000000
  -V(xc)+E(xc)   XCENC  =      1406.22765257
  PAW double counting   =     23436.68260187   -23016.80438707
  entropy T*S    EENTRO =        -0.05639571
  eigenvalues    EBANDS =     -5347.12309013
  atomic energy  EATOM  =     29034.48175847
  Solvation  Ediel_sol  =         0.00000000
  ---------------------------------------------------
  free energy    TOTEN  =       -46.77550571 eV

  energy without entropy =      -46.71911001  energy(sigma->0) =      -46.75670715


--------------------------------------------------------------------------------------------------------




----------------------------------------- Iteration    1(   5)  ---------------------------------------


    EDDIAG:  cpu time    1.1694: real time    1.1735
  RMM-DIIS:  cpu time    0.6955: real time    0.6991
    ORTHCH:  cpu time    0.4413: real time    0.5875
       DOS:  cpu time    0.0021: real time    0.0021
    --------------------------------------------
      LOOP:  cpu time    2.3367: real time    2.4944

 eigenvalue-minimisations  :   288
 total energy-change (2. order) :-0.5151987E+03  (-0.4731850E+03)
 number of electron     480.0000000 magnetization 
 augmentation part      480.0000000 magnetization 

 Free energy of the ion-electron system (eV)
  ---------------------------------------------------
  alpha Z        PSCENC =       403.80486096
  Ewald energy   TEWEN  =     -3341.30016866
  -Hartree energ DENC   =    -22622.68833799
  -exchange      EXHF   =         0.00000000
  -V(xc)+E(xc)   XCENC  =      1406.22765257
  PAW double counting   =     23436.68260187   -23016.80438707
  entropy T*S    EENTRO =         0.01002927
  eigenvalues    EBANDS =     -5862.38816546
  atomic energy  EATOM  =     29034.48175847
  Solvation  Ediel_sol  =         0.00000000
  ---------------------------------------------------
  free energy    TOTEN  =      -561.97415607 eV

  energy without entropy =     -561.98418534  energy(sigma->0) =     -561.97749916


--------------------------------------------------------------------------------------------------------




----------------------------------------- Iteration    1(   6)  ---------------------------------------


    EDDIAG:  cpu time    0.7715: real time    1.0726
  RMM-DIIS:  cpu time    0.6937: real time    0.7007
    ORTHCH:  cpu time    0.5668: real time    0.6094
       DOS:  cpu time    0.0021: real time    0.0021
    --------------------------------------------
      LOOP:  cpu time    2.0378: real time    2.4300

 eigenvalue-minimisations  :   288
 total energy-change (2. order) :-0.1734805E+03  (-0.1632748E+03)
 number of electron     480.0000000 magnetization 
 augmentation part      480.0000000 magnetization 

 Free energy of the ion-electron system (eV)
  ---------------------------------------------------
  alpha Z        PSCENC =       403.80486096
  Ewald energy   TEWEN  =     -3341.30016866
  -Hartree energ DENC   =    -22622.68833799
  -exchange      EXHF   =         0.00000000
  -V(xc)+E(xc)   XCENC  =      1406.22765257
  PAW double counting   =     23436.68260187   -23016.80438707
  entropy T*S    EENTRO =         0.00579881
  eigenvalues    EBANDS =     -6035.86439895
  atomic energy  EATOM  =     29034.48175847
  Solvation  Ediel_sol  =         0.00000000
  ---------------------------------------------------
  free energy    TOTEN  =      -735.45462001 eV

  energy without entropy =     -735.46041882  energy(sigma->0) =     -735.45655295


--------------------------------------------------------------------------------------------------------




----------------------------------------- Iteration    1(   7)  ---------------------------------------


    EDDIAG:  cpu time    1.0633: real time    1.1579
  RMM-DIIS:  cpu time    0.6964: real time    0.7000
    ORTHCH:  cpu time    0.5398: real time    0.5902
       DOS:  cpu time    0.0068: real time    0.0068
    --------------------------------------------
      LOOP:  cpu time    2.3593: real time    2.5599

 eigenvalue-minimisations  :   288
 total energy-change (2. order) :-0.4936368E+02  (-0.4884491E+02)
 number of electron     480.0000000 magnetization 
 augmentation part      480.0000000 magnetization 

 Free energy of the ion-electron system (eV)
  ---------------------------------------------------
  alpha Z        PSCENC =       403.80486096
  Ewald energy   TEWEN  =     -3341.30016866
  -Hartree energ DENC   =    -22622.68833799
  -exchange      EXHF   =         0.00000000
  -V(xc)+E(xc)   XCENC  =      1406.22765257
  PAW double counting   =     23436.68260187   -23016.80438707
  entropy T*S    EENTRO =         0.00706560
  eigenvalues    EBANDS =     -6085.22934136
  atomic energy  EATOM  =     29034.48175847
  Solvation  Ediel_sol  =         0.00000000
  ---------------------------------------------------
  free energy    TOTEN  =      -784.81829564 eV

  energy without entropy =     -784.82536123  energy(sigma->0) =     -784.82065084


--------------------------------------------------------------------------------------------------------




----------------------------------------- Iteration    1(   8)  ---------------------------------------


    EDDIAG:  cpu time    0.7794: real time    1.0453
  RMM-DIIS:  cpu time    0.7108: real time    0.7592
    ORTHCH:  cpu time    0.4817: real time    0.5409
       DOS:  cpu time    0.0024: real time    0.0025
    --------------------------------------------
      LOOP:  cpu time    2.0253: real time    2.5043

 eigenvalue-minimisations  :   288
 total energy-change (2. order) :-0.1606321E+02  (-0.1563685E+02)
 number of electron     480.0000000 magnetization 
 augmentation part      480.0000000 magnetization 

 Free energy of the ion-electron system (eV)
  ---------------------------------------------------
  alpha Z        PSCENC =       403.80486096
  Ewald energy   TEWEN  =     -3341.30016866
  -Hartree energ DENC   =    -22622.68833799
  -exchange      EXHF   =         0.00000000
  -V(xc)+E(xc)   XCENC  =      1406.22765257
  PAW double counting   =     23436.68260187   -23016.80438707
  entropy T*S    EENTRO =         0.07597408
  eigenvalues    EBANDS =     -6101.36146379
  atomic energy  EATOM  =     29034.48175847
  Solvation  Ediel_sol  =         0.00000000
  ---------------------------------------------------
  free energy    TOTEN  =      -800.88150959 eV

  energy without entropy =     -800.95748367  energy(sigma->0) =     -800.90683428


--------------------------------------------------------------------------------------------------------




----------------------------------------- Iteration    1(   9)  ---------------------------------------


    EDDIAG:  cpu time    1.0764: real time    1.2002
  RMM-DIIS:  cpu time    1.3142: real time    1.3221
    ORTHCH:  cpu time    0.4487: real time    0.6330
       DOS:  cpu time    0.0024: real time    0.0025
    --------------------------------------------
      LOOP:  cpu time    2.8985: real time    3.2229

 eigenvalue-minimisations  :   592
 total energy-change (2. order) :-0.7485266E+01  (-0.7387711E+01)
 number of electron     480.0000000 magnetization 
 augmentation part      480.0000000 magnetization 

 Free energy of the ion-electron system (eV)
  ---------------------------------------------------
  alpha Z        PSCENC =       403.80486096
  Ewald energy   TEWEN  =     -3341.30016866
  -Hartree energ DENC   =    -22622.68833799
  -exchange      EXHF   =         0.00000000
  -V(xc)+E(xc)   XCENC  =      1406.22765257
  PAW double counting   =     23436.68260187   -23016.80438707
  entropy T*S    EENTRO =         0.06664507
  eigenvalues    EBANDS =     -6108.83740054
  atomic energy  EATOM  =     29034.48175847
  Solvation  Ediel_sol  =         0.00000000
  ---------------------------------------------------
  free energy    TOTEN  =      -808.36677535 eV

  energy without entropy =     -808.43342042  energy(sigma->0) =     -808.38899037


--------------------------------------------------------------------------------------------------------




----------------------------------------- Iteration    1(  10)  ---------------------------------------


    EDDIAG:  cpu time    0.9714: real time    0.9760
  RMM-DIIS:  cpu time    1.4574: real time    1.4682
    ORTHCH:  cpu time    0.6382: real time    0.6412
       DOS:  cpu time    0.0038: real time    0.0038
    --------------------------------------------
      LOOP:  cpu time    3.0743: real time    3.1964

 eigenvalue-minimisations  :   656
 total energy-change (2. order) :-0.8692728E+00  (-0.9051312E+00)
 number of electron     480.0000000 magnetization 
 augmentation part      480.0000000 magnetization 

 Free energy of the ion-electron system (eV)
  ---------------------------------------------------
  alpha Z        PSCENC =       403.80486096
  Ewald energy   TEWEN  =     -3341.30016866
  -Hartree energ DENC   =    -22622.68833799
  -exchange      EXHF   =         0.00000000
  -V(xc)+E(xc)   XCENC  =      1406.22765257
  PAW double counting   =     23436.68260187   -23016.80438707
  entropy T*S    EENTRO =         0.06042157
  eigenvalues    EBANDS =     -6109.70044989
  atomic energy  EATOM  =     29034.48175847
  Solvation  Ediel_sol  =         0.00000000
  ---------------------------------------------------
  free energy    TOTEN  =      -809.23604820 eV

  energy without entropy =     -809.29646977  energy(sigma->0) =     -809.25618872


--------------------------------------------------------------------------------------------------------




----------------------------------------- Iteration    1(  11)  ---------------------------------------


    EDDIAG:  cpu time    0.9568: real time    0.9621
  RMM-DIIS:  cpu time    1.3481: real time    1.3579
    ORTHCH:  cpu time    0.5914: real time    0.5943
       DOS:  cpu time    0.0026: real time    0.0026
    --------------------------------------------
      LOOP:  cpu time    2.9560: real time    3.0816

 eigenvalue-minimisations  :   622
 total energy-change (2. order) :-0.5946861E-02  (-0.2250490E-01)
 number of electron     480.0000000 magnetization 
 augmentation part      480.0000000 magnetization 

 Free energy of the ion-electron system (eV)
  ---------------------------------------------------
  alpha Z        PSCENC =       403.80486096
  Ewald energy   TEWEN  =     -3341.30016866
  -Hartree energ DENC   =    -22622.68833799
  -exchange      EXHF   =         0.00000000
  -V(xc)+E(xc)   XCENC  =      1406.22765257
  PAW double counting   =     23436.68260187   -23016.80438707
  entropy T*S    EENTRO =         0.06042564
  eigenvalues    EBANDS =     -6109.70640082
  atomic energy  EATOM  =     29034.48175847
  Solvation  Ediel_sol  =         0.00000000
  ---------------------------------------------------
  free energy    TOTEN  =      -809.24199506 eV

  energy without entropy =     -809.30242069  energy(sigma->0) =     -809.26213694


--------------------------------------------------------------------------------------------------------




----------------------------------------- Iteration    1(  12)  ---------------------------------------


    EDDIAG:  cpu time    1.0989: real time    1.1045
  RMM-DIIS:  cpu time    1.4152: real time    1.4249
    ORTHCH:  cpu time    0.4335: real time    0.5951
       DOS:  cpu time    0.0024: real time    0.0024
    CHARGE:  cpu time    0.5078: real time    0.5599
    MIXING:  cpu time    0.0074: real time    0.0074
    --------------------------------------------
      LOOP:  cpu time    3.5062: real time    3.7382

 eigenvalue-minimisations  :   650
 total energy-change (2. order) :-0.3554751E-02  (-0.3534519E-02)
 number of electron     479.9999864 magnetization 
 augmentation part       44.6993913 magnetization 

 Broyden mixing:
  rms(total) = 0.78841E+01    rms(broyden)= 0.78840E+01
  rms(prec ) = 0.88437E+01
  weight for this iteration     100.00

 Free energy of the ion-electron system (eV)
  ---------------------------------------------------
  alpha Z        PSCENC =       403.80486096
  Ewald energy   TEWEN  =     -3341.30016866
  -Hartree energ DENC   =    -22622.68833799
  -exchange      EXHF   =         0.00000000
  -V(xc)+E(xc)   XCENC  =      1406.22765257
  PAW double counting   =     23436.68260187   -23016.80438707
  entropy T*S    EENTRO =         0.06042727
  eigenvalues    EBANDS =     -6109.70995721
  atomic energy  EATOM  =     29034.48175847
  Solvation  Ediel_sol  =         0.00000000
  ---------------------------------------------------
  free energy    TOTEN  =      -809.24554981 eV

  energy without entropy =     -809.30597708  energy(sigma->0) =     -809.26569223


--------------------------------------------------------------------------------------------------------




----------------------------------------- Iteration    1(  13)  ---------------------------------------


    POTLOK:  cpu time    0.5889: real time    0.5912
    SETDIJ:  cpu time    0.0104: real time    0.0105
    EDDIAG:  cpu time    1.0978: real time    1.1020
  RMM-DIIS:  cpu time    1.3427: real time    1.3521
    ORTHCH:  cpu time    0.5922: real time    0.5940
       DOS:  cpu time    0.0025: real time    0.0025
    CHARGE:  cpu time    0.5802: real time    0.5823
    MIXING:  cpu time    0.0085: real time    0.0087
    --------------------------------------------
      LOOP:  cpu time    4.2273: real time    4.2498

 eigenvalue-minimisations  :   576
 total energy-change (2. order) : 0.9681508E+02  (-0.4474999E+02)
 number of electron     479.9999885 magnetization 
 augmentation part       36.4348636 magnetization 

 Broyden mixing:
  rms(total) = 0.31132E+01    rms(broyden)= 0.31131E+01
  rms(prec ) = 0.32395E+01
  weight for this iteration     100.00

 eigenvalues of (default mixing * dielectric matrix)
  average eigenvalue GAMMA=   1.1700
  1.1700

 Free energy of the ion-electron system (eV)
  ---------------------------------------------------
  alpha Z        PSCENC =       403.80486096
  Ewald energy   TEWEN  =     -3341.30016866
  -Hartree energ DENC   =    -23770.85215702
  -exchange      EXHF   =         0.00000000
  -V(xc)+E(xc)   XCENC  =      1479.04164846
  PAW double counting   =     40936.15193125   -40537.79874652
  entropy T*S    EENTRO =         0.05253682
  eigenvalues    EBANDS =     -4916.01213557
  atomic energy  EATOM  =     29034.48175847
  Solvation  Ediel_sol  =         0.00000000
  ---------------------------------------------------
  free energy    TOTEN  =      -712.43047182 eV

  energy without entropy =     -712.48300864  energy(sigma->0) =     -712.44798409


--------------------------------------------------------------------------------------------------------




----------------------------------------- Iteration    1(  14)  ---------------------------------------


    POTLOK:  cpu time    0.5722: real time    0.5799
    SETDIJ:  cpu time    0.0101: real time    0.0103
    EDDIAG:  cpu time    1.0621: real time    1.0671
  RMM-DIIS:  cpu time    1.2702: real time    1.2791
    ORTHCH:  cpu time    0.6088: real time    0.6109
       DOS:  cpu time    0.0024: real time    0.0024
    CHARGE:  cpu time    0.5918: real time    0.5941
    MIXING:  cpu time    0.0085: real time    0.0085
    --------------------------------------------
      LOOP:  cpu time    4.1301: real time    4.1584

 eigenvalue-minimisations  :   579
 total energy-change (2. order) : 0.3990097E+00  (-0.1938692E+01)
 number of electron     479.9999887 magnetization 
 augmentation part       35.2344193 magnetization 

 Broyden mixing:
  rms(total) = 0.15689E+01    rms(broyden)= 0.15689E+01
  rms(prec ) = 0.16425E+01
  weight for this iteration     100.00

 eigenvalues of (default mixing * dielectric matrix)
  average eigenvalue GAMMA=   1.6299
  1.1771  2.0827

 Free energy of the ion-electron system (eV)
  ---------------------------------------------------
  alpha Z        PSCENC =       403.80486096
  Ewald energy   TEWEN  =     -3341.30016866
  -Hartree energ DENC   =    -23987.10762938
  -exchange      EXHF   =         0.00000000
  -V(xc)+E(xc)   XCENC  =      1491.25541959
  PAW double counting   =     57485.87817237   -57088.99492198
  entropy T*S    EENTRO =         0.05892590
  eigenvalues    EBANDS =     -4710.10787939
  atomic energy  EATOM  =     29034.48175847
  Solvation  Ediel_sol  =         0.00000000
  ---------------------------------------------------
  free energy    TOTEN  =      -712.03146213 eV

  energy without entropy =     -712.09038803  energy(sigma->0) =     -712.05110410


--------------------------------------------------------------------------------------------------------




----------------------------------------- Iteration    1(  15)  ---------------------------------------


    POTLOK:  cpu time    0.6175: real time    0.6198
    SETDIJ:  cpu time    0.0103: real time    0.0104
    EDDIAG:  cpu time    1.1254: real time    1.1298
  RMM-DIIS:  cpu time    1.2595: real time    1.2686
    ORTHCH:  cpu time    0.5763: real time    0.5783
       DOS:  cpu time    0.0025: real time    0.0025
    CHARGE:  cpu time    0.5608: real time    0.5629
    MIXING:  cpu time    0.0091: real time    0.0092
    --------------------------------------------
      LOOP:  cpu time    4.1644: real time    4.1863

 eigenvalue-minimisations  :   576
 total energy-change (2. order) : 0.4201015E+00  (-0.2933527E+00)
 number of electron     479.9999886 magnetization 
 augmentation part       35.6378641 magnetization 

 Broyden mixing:
  rms(total) = 0.19518E+00    rms(broyden)= 0.19518E+00
  rms(prec ) = 0.25882E+00
  weight for this iteration     100.00

 eigenvalues of (default mixing * dielectric matrix)
  average eigenvalue GAMMA=   1.5112
  2.2865  1.1236  1.1236

 Free energy of the ion-electron system (eV)
  ---------------------------------------------------
  alpha Z        PSCENC =       403.80486096
  Ewald energy   TEWEN  =     -3341.30016866
  -Hartree energ DENC   =    -24049.33433382
  -exchange      EXHF   =         0.00000000
  -V(xc)+E(xc)   XCENC  =      1493.22440669
  PAW double counting   =     74600.22887628   -74201.73814797
  entropy T*S    EENTRO =         0.05975145
  eigenvalues    EBANDS =     -4651.03836398
  atomic energy  EATOM  =     29034.48175847
  Solvation  Ediel_sol  =         0.00000000
  ---------------------------------------------------
  free energy    TOTEN  =      -711.61136060 eV

  energy without entropy =     -711.67111204  energy(sigma->0) =     -711.63127775


--------------------------------------------------------------------------------------------------------




----------------------------------------- Iteration    1(  16)  ---------------------------------------


    POTLOK:  cpu time    0.6293: real time    0.6315
    SETDIJ:  cpu time    0.0098: real time    0.0098
    EDDIAG:  cpu time    1.1059: real time    1.1099
  RMM-DIIS:  cpu time    1.3825: real time    1.3920
    ORTHCH:  cpu time    0.5688: real time    0.5707
       DOS:  cpu time    0.0028: real time    0.0028
    CHARGE:  cpu time    0.6549: real time    0.6573
    MIXING:  cpu time    0.0104: real time    0.0104
    --------------------------------------------
      LOOP:  cpu time    4.3682: real time    4.3902

 eigenvalue-minimisations  :   576
 total energy-change (2. order) : 0.7659855E-01  (-0.4455766E-01)
 number of electron     479.9999886 magnetization 
 augmentation part       35.4623687 magnetization 

 Broyden mixing:
  rms(total) = 0.97678E-01    rms(broyden)= 0.97676E-01
  rms(prec ) = 0.12989E+00
  weight for this iteration     100.00

 eigenvalues of (default mixing * dielectric matrix)
  average eigenvalue GAMMA=   1.6383
  2.7732  1.8821  1.1598  0.7382

 Free energy of the ion-electron system (eV)
  ---------------------------------------------------
  alpha Z        PSCENC =       403.80486096
  Ewald energy   TEWEN  =     -3341.30016866
  -Hartree energ DENC   =    -24113.12767861
  -exchange      EXHF   =         0.00000000
  -V(xc)+E(xc)   XCENC  =      1496.54712696
  PAW double counting   =     76127.61193155   -75729.77827394
  entropy T*S    EENTRO =         0.06009347
  eigenvalues    EBANDS =     -4589.83441222
  atomic energy  EATOM  =     29034.48175847
  Solvation  Ediel_sol  =         0.00000000
  ---------------------------------------------------
  free energy    TOTEN  =      -711.53476205 eV

  energy without entropy =     -711.59485551  energy(sigma->0) =     -711.55479320


--------------------------------------------------------------------------------------------------------




----------------------------------------- Iteration    1(  17)  ---------------------------------------


    POTLOK:  cpu time    0.6066: real time    0.6084
    SETDIJ:  cpu time    0.0288: real time    0.0289
    EDDIAG:  cpu time    1.1057: real time    1.1095
  RMM-DIIS:  cpu time    1.2594: real time    1.2685
    ORTHCH:  cpu time    0.6058: real time    0.6077
       DOS:  cpu time    0.0023: real time    0.0023
    CHARGE:  cpu time    0.5523: real time    0.5543
    MIXING:  cpu time    0.0106: real time    0.0106
    --------------------------------------------
      LOOP:  cpu time    4.1749: real time    4.1965

 eigenvalue-minimisations  :   576
 total energy-change (2. order) :-0.3722756E-01  (-0.3414722E-01)
 number of electron     479.9999886 magnetization 
 augmentation part       35.2749524 magnetization 

 Broyden mixing:
  rms(total) = 0.12137E+00    rms(broyden)= 0.12137E+00
  rms(prec ) = 0.14282E+00
  weight for this iteration     100.00

 eigenvalues of (default mixing * dielectric matrix)
  average eigenvalue GAMMA=   1.5698
  2.6631  2.3692  1.0133  1.0133  0.7901

 Free energy of the ion-electron system (eV)
  ---------------------------------------------------
  alpha Z        PSCENC =       403.80486096
  Ewald energy   TEWEN  =     -3341.30016866
  -Hartree energ DENC   =    -24170.89438172
  -exchange      EXHF   =         0.00000000
  -V(xc)+E(xc)   XCENC  =      1499.10030896
  PAW double counting   =     76261.11398888   -75863.70816413
  entropy T*S    EENTRO =         0.06026903
  eigenvalues    EBANDS =     -4534.23046138
  atomic energy  EATOM  =     29034.48175847
  Solvation  Ediel_sol  =         0.00000000
  ---------------------------------------------------
  free energy    TOTEN  =      -711.57198960 eV

  energy without entropy =     -711.63225863  energy(sigma->0) =     -711.59207928


--------------------------------------------------------------------------------------------------------




----------------------------------------- Iteration    1(  18)  ---------------------------------------


    POTLOK:  cpu time    0.5850: real time    0.5871
    SETDIJ:  cpu time    0.0098: real time    0.0098
    EDDIAG:  cpu time    1.0438: real time    1.0477
  RMM-DIIS:  cpu time    1.2744: real time    1.2836
    ORTHCH:  cpu time    0.5976: real time    0.5995
       DOS:  cpu time    0.0025: real time    0.0025
    CHARGE:  cpu time    0.5931: real time    0.5953
    MIXING:  cpu time    0.0107: real time    0.0108
    --------------------------------------------
      LOOP:  cpu time    4.1207: real time    4.1427

 eigenvalue-minimisations  :   576
 total energy-change (2. order) : 0.1462443E-01  (-0.9371794E-02)
 number of electron     479.9999886 magnetization 
 augmentation part       35.3798617 magnetization 

 Broyden mixing:
  rms(total) = 0.20608E-01    rms(broyden)= 0.20607E-01
  rms(prec ) = 0.37493E-01
  weight for this iteration     100.00

 eigenvalues of (default mixing * dielectric matrix)
  average eigenvalue GAMMA=   1.5102
  2.7384  2.4520  1.0694  1.0694  0.9612  0.7711

 Free energy of the ion-electron system (eV)
  ---------------------------------------------------
  alpha Z        PSCENC =       403.80486096
  Ewald energy   TEWEN  =     -3341.30016866
  -Hartree energ DENC   =    -24159.16479563
  -exchange      EXHF   =         0.00000000
  -V(xc)+E(xc)   XCENC  =      1497.89518222
  PAW double counting   =     75275.62389156   -74877.84377991
  entropy T*S    EENTRO =         0.06022520
  eigenvalues    EBANDS =     -4545.11453937
  atomic energy  EATOM  =     29034.48175847
  Solvation  Ediel_sol  =         0.00000000
  ---------------------------------------------------
  free energy    TOTEN  =      -711.55736517 eV

  energy without entropy =     -711.61759036  energy(sigma->0) =     -711.57744023


--------------------------------------------------------------------------------------------------------




----------------------------------------- Iteration    1(  19)  ---------------------------------------


    POTLOK:  cpu time    0.5913: real time    0.5936
    SETDIJ:  cpu time    0.0091: real time    0.0091
    EDDIAG:  cpu time    1.1058: real time    1.1097
  RMM-DIIS:  cpu time    1.3033: real time    1.3128
    ORTHCH:  cpu time    0.5683: real time    0.5700
       DOS:  cpu time    0.0024: real time    0.0024
    CHARGE:  cpu time    0.5556: real time    0.5579
    MIXING:  cpu time    0.0120: real time    0.0121
    --------------------------------------------
      LOOP:  cpu time    4.1514: real time    4.1740

 eigenvalue-minimisations  :   576
 total energy-change (2. order) :-0.1059156E-01  (-0.1974714E-02)
 number of electron     479.9999886 magnetization 
 augmentation part       35.4229798 magnetization 

 Broyden mixing:
  rms(total) = 0.21741E-01    rms(broyden)= 0.21740E-01
  rms(prec ) = 0.30776E-01
  weight for this iteration     100.00

 eigenvalues of (default mixing * dielectric matrix)
  average eigenvalue GAMMA=   1.6446
  2.9699  2.5102  2.3750  1.0177  1.0177  0.8564  0.7651

 Free energy of the ion-electron system (eV)
  ---------------------------------------------------
  alpha Z        PSCENC =       403.80486096
  Ewald energy   TEWEN  =     -3341.30016866
  -Hartree energ DENC   =    -24161.34445433
  -exchange      EXHF   =         0.00000000
  -V(xc)+E(xc)   XCENC  =      1497.65258257
  PAW double counting   =     75094.83465079   -74696.93317564
  entropy T*S    EENTRO =         0.06033605
  eigenvalues    EBANDS =     -4542.82434693
  atomic energy  EATOM  =     29034.48175847
  Solvation  Ediel_sol  =         0.00000000
  ---------------------------------------------------
  free energy    TOTEN  =      -711.56795673 eV

  energy without entropy =     -711.62829278  energy(sigma->0) =     -711.58806875


--------------------------------------------------------------------------------------------------------




----------------------------------------- Iteration    1(  20)  ---------------------------------------


    POTLOK:  cpu time    0.5684: real time    0.5703
    SETDIJ:  cpu time    0.0099: real time    0.0099
    EDDIAG:  cpu time    1.0751: real time    1.0788
  RMM-DIIS:  cpu time    1.2691: real time    1.2786
    ORTHCH:  cpu time    0.6852: real time    0.6872
       DOS:  cpu time    0.0030: real time    0.0031
    CHARGE:  cpu time    0.6395: real time    0.6417
    MIXING:  cpu time    0.0114: real time    0.0115
    --------------------------------------------
      LOOP:  cpu time    4.2646: real time    4.2860

 eigenvalue-minimisations  :   576
 total energy-change (2. order) :-0.1173577E-01  (-0.3574566E-03)
 number of electron     479.9999886 magnetization 
 augmentation part       35.4182299 magnetization 

 Broyden mixing:
  rms(total) = 0.10558E-01    rms(broyden)= 0.10558E-01
  rms(prec ) = 0.13325E-01
  weight for this iteration     100.00

 eigenvalues of (default mixing * dielectric matrix)
  average eigenvalue GAMMA=   1.7637
  4.2614  2.7483  2.4330  1.0425  1.0425  1.0288  0.8236  0.7296

 Free energy of the ion-electron system (eV)
  ---------------------------------------------------
  alpha Z        PSCENC =       403.80486096
  Ewald energy   TEWEN  =     -3341.30016866
  -Hartree energ DENC   =    -24173.20259891
  -exchange      EXHF   =         0.00000000
  -V(xc)+E(xc)   XCENC  =      1497.87426530
  PAW double counting   =     75216.09525312   -74818.18179767
  entropy T*S    EENTRO =         0.06031580
  eigenvalues    EBANDS =     -4531.21158090
  atomic energy  EATOM  =     29034.48175847
  Solvation  Ediel_sol  =         0.00000000
  ---------------------------------------------------
  free energy    TOTEN  =      -711.57969250 eV

  energy without entropy =     -711.64000830  energy(sigma->0) =     -711.59979777


--------------------------------------------------------------------------------------------------------




----------------------------------------- Iteration    1(  21)  ---------------------------------------


    POTLOK:  cpu time    0.5932: real time    0.5954
    SETDIJ:  cpu time    0.0102: real time    0.0102
    EDDIAG:  cpu time    1.0807: real time    1.0846
  RMM-DIIS:  cpu time    1.2751: real time    1.2842
    ORTHCH:  cpu time    0.6783: real time    0.6801
       DOS:  cpu time    0.0026: real time    0.0026
    CHARGE:  cpu time    0.6506: real time    0.6529
    MIXING:  cpu time    0.0122: real time    0.0122
    --------------------------------------------
      LOOP:  cpu time    4.3062: real time    4.3281

 eigenvalue-minimisations  :   576
 total energy-change (2. order) :-0.1842944E-02  (-0.2046592E-03)
 number of electron     479.9999886 magnetization 
 augmentation part       35.4042737 magnetization 

 Broyden mixing:
  rms(total) = 0.26046E-02    rms(broyden)= 0.26042E-02
  rms(prec ) = 0.38610E-02
  weight for this iteration     100.00

 eigenvalues of (default mixing * dielectric matrix)
  average eigenvalue GAMMA=   1.8681
  5.1857  2.7659  2.4276  1.7987  1.0525  1.0525  0.9206  0.8782  0.7317

 Free energy of the ion-electron system (eV)
  ---------------------------------------------------
  alpha Z        PSCENC =       403.80486096
  Ewald energy   TEWEN  =     -3341.30016866
  -Hartree energ DENC   =    -24177.49427440
  -exchange      EXHF   =         0.00000000
  -V(xc)+E(xc)   XCENC  =      1498.01174873
  PAW double counting   =     75275.75752950   -74877.87502104
  entropy T*S    EENTRO =         0.06026732
  eigenvalues    EBANDS =     -4527.02823631
  atomic energy  EATOM  =     29034.48175847
  Solvation  Ediel_sol  =         0.00000000
  ---------------------------------------------------
  free energy    TOTEN  =      -711.58153545 eV

  energy without entropy =     -711.64180276  energy(sigma->0) =     -711.60162455


--------------------------------------------------------------------------------------------------------




----------------------------------------- Iteration    1(  22)  ---------------------------------------


    POTLOK:  cpu time    0.5815: real time    0.5838
    SETDIJ:  cpu time    0.0098: real time    0.0098
    EDDIAG:  cpu time    1.0483: real time    1.0521
  RMM-DIIS:  cpu time    1.2641: real time    1.2734
    ORTHCH:  cpu time    0.5929: real time    0.5948
       DOS:  cpu time    0.0027: real time    0.0027
    CHARGE:  cpu time    0.5699: real time    0.5721
    MIXING:  cpu time    0.0140: real time    0.0140
    --------------------------------------------
      LOOP:  cpu time    4.0871: real time    4.1089

 eigenvalue-minimisations  :   577
 total energy-change (2. order) :-0.7254751E-03  (-0.1116078E-04)
 number of electron     479.9999886 magnetization 
 augmentation part       35.4052374 magnetization 

 Broyden mixing:
  rms(total) = 0.94296E-03    rms(broyden)= 0.94291E-03
  rms(prec ) = 0.17468E-02
  weight for this iteration     100.00

 eigenvalues of (default mixing * dielectric matrix)
  average eigenvalue GAMMA=   1.9097
  5.6196  2.8571  2.4864  2.4864  1.0489  1.0489  1.0152  0.8987  0.8987  0.7375

 Free energy of the ion-electron system (eV)
  ---------------------------------------------------
  alpha Z        PSCENC =       403.80486096
  Ewald energy   TEWEN  =     -3341.30016866
  -Hartree energ DENC   =    -24177.44959268
  -exchange      EXHF   =         0.00000000
  -V(xc)+E(xc)   XCENC  =      1497.98831125
  PAW double counting   =     75274.72767835   -74876.84833874
  entropy T*S    EENTRO =         0.06026282
  eigenvalues    EBANDS =     -4527.04703269
  atomic energy  EATOM  =     29034.48175847
  Solvation  Ediel_sol  =         0.00000000
  ---------------------------------------------------
  free energy    TOTEN  =      -711.58226092 eV

  energy without entropy =     -711.64252374  energy(sigma->0) =     -711.60234853


--------------------------------------------------------------------------------------------------------




----------------------------------------- Iteration    1(  23)  ---------------------------------------


    POTLOK:  cpu time    0.5867: real time    0.5889
    SETDIJ:  cpu time    0.0098: real time    0.0098
    EDDIAG:  cpu time    1.2282: real time    1.2421
  RMM-DIIS:  cpu time    1.1273: real time    1.1356
    ORTHCH:  cpu time    0.5896: real time    0.5916
       DOS:  cpu time    0.0024: real time    0.0024
    CHARGE:  cpu time    0.5419: real time    0.5437
    MIXING:  cpu time    0.0135: real time    0.0136
    --------------------------------------------
      LOOP:  cpu time    4.1026: real time    4.1333

 eigenvalue-minimisations  :   511
 total energy-change (2. order) :-0.1779243E-03  (-0.4623144E-05)
 number of electron     479.9999886 magnetization 
 augmentation part       35.4052372 magnetization 

 Broyden mixing:
  rms(total) = 0.46557E-03    rms(broyden)= 0.46552E-03
  rms(prec ) = 0.96001E-03
  weight for this iteration     100.00

 eigenvalues of (default mixing * dielectric matrix)
  average eigenvalue GAMMA=   1.9371
  5.8690  2.9588  2.5917  2.4429  1.8150  1.0540  1.0540  0.9997  0.8936  0.8936
  0.7361

 Free energy of the ion-electron system (eV)
  ---------------------------------------------------
  alpha Z        PSCENC =       403.80486096
  Ewald energy   TEWEN  =     -3341.30016866
  -Hartree energ DENC   =    -24177.67396725
  -exchange      EXHF   =         0.00000000
  -V(xc)+E(xc)   XCENC  =      1497.99074173
  PAW double counting   =     75269.53947510   -74871.66556877
  entropy T*S    EENTRO =         0.06025791
  eigenvalues    EBANDS =     -4526.81982833
  atomic energy  EATOM  =     29034.48175847
  Solvation  Ediel_sol  =         0.00000000
  ---------------------------------------------------
  free energy    TOTEN  =      -711.58243885 eV

  energy without entropy =     -711.64269676  energy(sigma->0) =     -711.60252482


--------------------------------------------------------------------------------------------------------




----------------------------------------- Iteration    1(  24)  ---------------------------------------


    POTLOK:  cpu time    0.5857: real time    0.5881
    SETDIJ:  cpu time    0.0093: real time    0.0094
    EDDIAG:  cpu time    1.0749: real time    1.0786
  RMM-DIIS:  cpu time    1.1785: real time    1.1867
    ORTHCH:  cpu time    0.5761: real time    0.5779
       DOS:  cpu time    0.0169: real time    0.0169
    CHARGE:  cpu time    0.5829: real time    0.5850
    MIXING:  cpu time    0.0133: real time    0.0133
    --------------------------------------------
      LOOP:  cpu time    4.0411: real time    4.0624

 eigenvalue-minimisations  :   532
 total energy-change (2. order) :-0.8152307E-04  (-0.1520414E-05)
 number of electron     479.9999886 magnetization 
 augmentation part       35.4044143 magnetization 

 Broyden mixing:
  rms(total) = 0.60789E-03    rms(broyden)= 0.60785E-03
  rms(prec ) = 0.82886E-03
  weight for this iteration     100.00

 eigenvalues of (default mixing * dielectric matrix)
  average eigenvalue GAMMA=   1.9528
  5.8782  3.4534  2.7441  2.4817  1.9497  1.0624  1.0624  1.1430  1.1430  0.7355
  0.8899  0.8899

 Free energy of the ion-electron system (eV)
  ---------------------------------------------------
  alpha Z        PSCENC =       403.80486096
  Ewald energy   TEWEN  =     -3341.30016866
  -Hartree energ DENC   =    -24177.79215638
  -exchange      EXHF   =         0.00000000
  -V(xc)+E(xc)   XCENC  =      1497.99642531
  PAW double counting   =     75271.59877707   -74873.72648754
  entropy T*S    EENTRO =         0.06026077
  eigenvalues    EBANDS =     -4526.70579035
  atomic energy  EATOM  =     29034.48175847
  Solvation  Ediel_sol  =         0.00000000
  ---------------------------------------------------
  free energy    TOTEN  =      -711.58252037 eV

[...]
   -.723E+02 -.418E+02 0.408E+02   0.715E+02 0.417E+02 -.408E+02   0.755E+00 0.115E+00 0.146E-01   0.274E-04 0.363E-04 0.404E-04
   -.723E+02 -.417E+02 0.408E+02   0.718E+02 0.411E+02 -.408E+02   0.477E+00 0.597E+00 0.146E-01   0.451E-04 0.555E-05 0.404E-04
   0.723E+02 -.418E+02 0.408E+02   -.715E+02 0.417E+02 -.408E+02   -.755E+00 0.115E+00 0.146E-01   -.274E-04 0.363E-04 0.404E-04
   0.537E-01 0.835E+02 0.408E+02   -.332E+00 -.828E+02 -.408E+02   0.278E+00 -.711E+00 0.146E-01   -.178E-04 -.419E-04 0.404E-04
   0.537E-01 -.835E+02 -.408E+02   -.332E+00 0.828E+02 0.408E+02   0.278E+00 0.711E+00 -.146E-01   -.178E-04 0.419E-04 -.404E-04
   -.723E+02 0.417E+02 -.408E+02   0.718E+02 -.411E+02 0.408E+02   0.477E+00 -.597E+00 -.146E-01   0.451E-04 -.555E-05 -.404E-04
   0.723E+02 0.418E+02 -.408E+02   -.715E+02 -.417E+02 0.408E+02   -.755E+00 -.115E+00 -.146E-01   -.274E-04 -.363E-04 -.404E-04
   -.155E+02 0.269E+02 -.104E-05   0.152E+02 -.263E+02 -.144E-11   0.371E+00 -.642E+00 0.265E-22   0.821E-04 -.142E-03 0.191E-12
   -.155E+02 -.269E+02 0.302E-07   0.152E+02 0.263E+02 0.625E-13   0.371E+00 0.642E+00 0.265E-22   0.821E-04 0.142E-03 -.927E-11
   0.311E+02 -.360E-05 0.103E-05   -.303E+02 0.228E-11 0.576E-12   -.742E+00 0.265E-22 -.265E-22   -.164E-03 0.536E-10 -.753E-11
   0.155E+02 -.269E+02 0.104E-05   -.152E+02 0.263E+02 0.166E-11   -.371E+00 0.642E+00 -.265E-22   -.821E-04 0.142E-03 -.531E-12
   0.155E+02 0.269E+02 -.302E-07   -.152E+02 -.263E+02 -.142E-13   -.371E+00 -.642E+00 0.000E+00   -.821E-04 -.142E-03 0.893E-11
   -.311E+02 0.360E-05 -.103E-05   0.303E+02 -.322E-11 -.140E-11   0.742E+00 -.794E-22 0.265E-22   0.164E-03 -.535E-10 0.723E-11
   -.429E+02 -.248E+02 0.972E+02   0.586E+02 0.339E+02 -.101E+03   -.157E+02 -.909E+01 0.351E+01   -.784E-04 -.453E-04 -.763E-04
   0.429E+02 -.248E+02 0.972E+02   -.586E+02 0.339E+02 -.101E+03   0.157E+02 -.909E+01 0.351E+01   0.784E-04 -.453E-04 -.763E-04
   -.184E-05 0.495E+02 0.972E+02   -.164E-10 -.677E+02 -.101E+03   0.444E-14 0.182E+02 0.351E+01   -.645E-10 0.906E-04 -.763E-04
   0.184E-05 -.495E+02 -.972E+02   0.173E-10 0.677E+02 0.101E+03   -.444E-14 -.182E+02 -.351E+01   0.645E-10 -.906E-04 0.763E-04
   -.429E+02 0.248E+02 -.972E+02   0.586E+02 -.339E+02 0.101E+03   -.157E+02 0.909E+01 -.351E+01   -.784E-04 0.453E-04 0.763E-04
   0.429E+02 0.248E+02 -.972E+02   -.586E+02 -.339E+02 0.101E+03   0.157E+02 0.909E+01 -.351E+01   0.784E-04 0.453E-04 0.763E-04
   0.292E+02 0.143E+03 -.682E+02   -.304E+02 -.157E+03 0.756E+02   0.118E+01 0.138E+02 -.736E+01   -.205E-03 -.118E-04 -.488E-04
   -.138E+03 -.461E+02 -.682E+02   0.151E+03 0.520E+02 0.756E+02   -.125E+02 -.586E+01 -.736E+01   0.113E-03 -.172E-03 -.488E-04
   0.109E+03 -.967E+02 -.682E+02   -.120E+03 0.105E+03 0.756E+02   0.113E+02 -.792E+01 -.736E+01   0.925E-04 0.184E-03 -.488E-04
   0.109E+03 0.967E+02 0.682E+02   -.120E+03 -.105E+03 -.756E+02   0.113E+02 0.792E+01 0.736E+01   0.925E-04 -.184E-03 0.488E-04
   0.292E+02 -.143E+03 0.682E+02   -.304E+02 0.157E+03 -.756E+02   0.118E+01 -.138E+02 0.736E+01   -.205E-03 0.118E-04 0.488E-04
   -.138E+03 0.461E+02 0.682E+02   0.151E+03 -.520E+02 -.756E+02   -.125E+02 0.586E+01 0.736E+01   0.113E-03 0.172E-03 0.488E-04
   -.292E+02 -.143E+03 0.682E+02   0.304E+02 0.157E+03 -.756E+02   -.118E+01 -.138E+02 0.736E+01   0.205E-03 0.118E-04 0.488E-04
   0.138E+03 0.461E+02 0.682E+02   -.151E+03 -.520E+02 -.756E+02   0.125E+02 0.586E+01 0.736E+01   -.113E-03 0.172E-03 0.488E-04
   -.109E+03 0.967E+02 0.682E+02   0.120E+03 -.105E+03 -.756E+02   -.113E+02 0.792E+01 0.736E+01   -.925E-04 -.184E-03 0.488E-04
   -.109E+03 -.967E+02 -.682E+02   0.120E+03 0.105E+03 0.756E+02   -.113E+02 -.792E+01 -.736E+01   -.925E-04 0.184E-03 -.488E-04
   -.292E+02 0.143E+03 -.682E+02   0.304E+02 -.157E+03 0.756E+02   -.118E+01 0.138E+02 -.736E+01   0.205E-03 -.118E-04 -.488E-04
   0.138E+03 -.461E+02 -.682E+02   -.151E+03 0.520E+02 0.756E+02   0.125E+02 -.586E+01 -.736E+01   -.113E-03 -.172E-03 -.488E-04
   0.441E-06 0.104E+03 0.163E+03   0.297E-10 -.111E+03 -.183E+03   0.161E-14 0.668E+01 0.199E+02   0.129E-10 0.126E-04 -.415E-04
   -.900E+02 -.519E+02 0.163E+03   0.957E+02 0.553E+02 -.183E+03   -.578E+01 -.334E+01 0.199E+02   -.109E-04 -.630E-05 -.415E-04
   0.900E+02 -.519E+02 0.163E+03   -.957E+02 0.553E+02 -.183E+03   0.578E+01 -.334E+01 0.199E+02   0.109E-04 -.630E-05 -.415E-04
   0.900E+02 0.519E+02 -.163E+03   -.957E+02 -.553E+02 0.183E+03   0.578E+01 0.334E+01 -.199E+02   0.109E-04 0.630E-05 0.415E-04
   -.441E-06 -.104E+03 -.163E+03   -.298E-10 0.111E+03 0.183E+03   -.161E-14 -.668E+01 -.199E+02   -.129E-10 -.126E-04 0.415E-04
   -.900E+02 0.519E+02 -.163E+03   0.957E+02 -.553E+02 0.183E+03   -.578E+01 0.334E+01 -.199E+02   -.109E-04 0.630E-05 0.415E-04
   0.140E+03 0.248E+03 -.819E+01   -.147E+03 -.271E+03 0.826E+01   0.701E+01 0.225E+02 -.706E-01   -.123E-03 0.681E-05 -.113E-03
   -.285E+03 -.328E+01 -.819E+01   0.308E+03 0.844E+01 0.826E+01   -.230E+02 -.517E+01 -.706E-01   0.557E-04 -.110E-03 -.113E-03
   0.145E+03 -.245E+03 -.819E+01   -.161E+03 0.262E+03 0.826E+01   0.160E+02 -.173E+02 -.706E-01   0.675E-04 0.103E-03 -.113E-03
   0.145E+03 0.245E+03 0.819E+01   -.161E+03 -.262E+03 -.826E+01   0.160E+02 0.173E+02 0.706E-01   0.675E-04 -.103E-03 0.113E-03
   0.140E+03 -.248E+03 0.819E+01   -.147E+03 0.271E+03 -.826E+01   0.701E+01 -.225E+02 0.706E-01   -.123E-03 -.681E-05 0.113E-03
   -.285E+03 0.328E+01 0.819E+01   0.308E+03 -.844E+01 -.826E+01   -.230E+02 0.517E+01 0.706E-01   0.557E-04 0.110E-03 0.113E-03
   -.140E+03 -.248E+03 0.819E+01   0.147E+03 0.271E+03 -.826E+01   -.701E+01 -.225E+02 0.706E-01   0.123E-03 -.681E-05 0.113E-03
   0.285E+03 0.328E+01 0.819E+01   -.308E+03 -.844E+01 -.826E+01   0.230E+02 0.517E+01 0.706E-01   -.557E-04 0.110E-03 0.113E-03
   -.145E+03 0.245E+03 0.819E+01   0.161E+03 -.262E+03 -.826E+01   -.160E+02 0.173E+02 0.706E-01   -.675E-04 -.103E-03 0.113E-03
   -.145E+03 -.245E+03 -.819E+01   0.161E+03 0.262E+03 0.826E+01   -.160E+02 -.173E+02 -.706E-01   -.675E-04 0.103E-03 -.113E-03
   -.140E+03 0.248E+03 -.819E+01   0.147E+03 -.271E+03 0.826E+01   -.701E+01 0.225E+02 -.706E-01   0.123E-03 0.681E-05 -.113E-03
   0.285E+03 -.328E+01 -.819E+01   -.308E+03 0.844E+01 0.826E+01   0.230E+02 -.517E+01 -.706E-01   -.557E-04 -.110E-03 -.113E-03
   0.241E-05 -.907E+02 -.148E+03   0.686E-10 0.111E+03 0.157E+03   -.455E-14 -.202E+02 -.978E+01   0.672E-10 -.191E-04 -.496E-04
   0.786E+02 0.454E+02 -.148E+03   -.960E+02 -.554E+02 0.157E+03   0.175E+02 0.101E+02 -.978E+01   0.165E-04 0.955E-05 -.496E-04
   -.786E+02 0.454E+02 -.148E+03   0.960E+02 -.554E+02 0.157E+03   -.175E+02 0.101E+02 -.978E+01   -.165E-04 0.955E-05 -.496E-04
   -.786E+02 -.454E+02 0.148E+03   0.960E+02 0.554E+02 -.157E+03   -.175E+02 -.101E+02 0.978E+01   -.165E-04 -.955E-05 0.496E-04
   -.241E-05 0.907E+02 0.148E+03   -.674E-10 -.111E+03 -.157E+03   0.455E-14 0.202E+02 0.978E+01   -.671E-10 0.191E-04 0.496E-04
   0.786E+02 -.454E+02 0.148E+03   -.960E+02 0.554E+02 -.157E+03   0.175E+02 -.101E+02 0.978E+01   0.165E-04 -.955E-05 0.496E-04
   0.226E+03 0.109E-05 0.272E-06   -.244E+03 0.842E-11 -.106E-10   0.177E+02 -.159E-21 0.132E-22   -.628E-04 -.423E-10 -.171E-10
   -.113E+03 0.196E+03 0.181E-06   0.122E+03 -.211E+03 0.150E-10   -.886E+01 0.153E+02 -.132E-22   0.314E-04 -.543E-04 0.203E-10
   -.113E+03 -.196E+03 -.488E-06   0.122E+03 0.211E+03 -.196E-11   -.886E+01 -.153E+02 0.265E-22   0.314E-04 0.543E-04 -.254E-12
   -.226E+03 -.109E-05 -.272E-06   0.244E+03 -.762E-11 0.916E-11   -.177E+02 0.529E-22 -.662E-23   0.628E-04 0.425E-10 0.174E-10
   0.113E+03 -.196E+03 -.181E-06   -.122E+03 0.211E+03 -.808E-11   0.886E+01 -.153E+02 -.132E-22   -.314E-04 0.543E-04 -.198E-10
   0.113E+03 0.196E+03 0.488E-06   -.122E+03 -.211E+03 0.475E-13   0.886E+01 0.153E+02 0.000E+00   -.314E-04 -.543E-04 0.763E-12
   0.158E+03 0.915E+02 -.162E+03   -.168E+03 -.970E+02 0.175E+03   0.953E+01 0.550E+01 -.123E+02   -.670E-04 -.387E-04 -.687E-04
   -.158E+03 0.915E+02 -.162E+03   0.168E+03 -.970E+02 0.175E+03   -.953E+01 0.550E+01 -.123E+02   0.670E-04 -.387E-04 -.687E-04
   0.971E-06 -.183E+03 -.162E+03   0.598E-10 0.194E+03 0.175E+03   -.255E-14 -.110E+02 -.123E+02   0.124E-10 0.774E-04 -.687E-04
   -.971E-06 0.183E+03 0.162E+03   -.578E-10 -.194E+03 -.175E+03   0.255E-14 0.110E+02 0.123E+02   -.124E-10 -.774E-04 0.687E-04
   0.158E+03 -.915E+02 0.162E+03   -.168E+03 0.970E+02 -.175E+03   0.953E+01 -.550E+01 0.123E+02   -.670E-04 0.387E-04 0.687E-04
   -.158E+03 -.915E+02 0.162E+03   0.168E+03 0.970E+02 -.175E+03   -.953E+01 -.550E+01 0.123E+02   0.670E-04 0.387E-04 0.687E-04
   -.732E+02 0.422E+02 0.115E+03   0.793E+02 -.458E+02 -.127E+03   -.614E+01 0.355E+01 0.124E+02   0.214E-03 -.124E-03 0.650E-05
   0.195E-06 -.845E+02 0.115E+03   -.444E-11 0.916E+02 -.127E+03   -.161E-14 -.709E+01 0.124E+02   0.626E-10 0.248E-03 0.650E-05
   0.732E+02 0.422E+02 0.115E+03   -.793E+02 -.458E+02 -.127E+03   0.614E+01 0.355E+01 0.124E+02   -.214E-03 -.124E-03 0.650E-05
   0.732E+02 -.422E+02 -.115E+03   -.793E+02 0.458E+02 0.127E+03   0.614E+01 -.355E+01 -.124E+02   -.214E-03 0.124E-03 -.650E-05
   -.732E+02 -.422E+02 -.115E+03   0.793E+02 0.458E+02 0.127E+03   -.614E+01 -.355E+01 -.124E+02   0.214E-03 0.124E-03 -.650E-05
   -.195E-06 0.845E+02 -.115E+03   0.449E-11 -.916E+02 0.127E+03   0.161E-14 0.709E+01 -.124E+02   -.626E-10 -.248E-03 -.650E-05
 -----------------------------------------------------------------------------------------------
   -.126E-09 0.323E-09 -.739E-10   0.604E-13 -.497E-12 0.270E-12   -.461E-14 -.888E-15 -.178E-14   0.475E-12 -.341E-12 -.323E-11
 
 
 POSITION                                       TOTAL-FORCE (eV/Angst)
 -----------------------------------------------------------------------------------
      5.11120      1.13757      2.23358         0.001952     -0.001338      0.001441
      9.78249      3.85765      2.23358         0.000183      0.002360      0.001441
      5.09120      6.54306      2.23358        -0.002135     -0.001022      0.001441
     -1.57043      4.99522     10.46327        -0.002135      0.001022     -0.001441
     -1.55043     10.40071     10.46327         0.001952      0.001338     -0.001441
      3.12086      7.68064     10.46327         0.000183     -0.002360     -0.001441
      1.55043     10.40071     10.46327        -0.001952      0.001338     -0.001441
     -3.12086      7.68064     10.46327        -0.000183     -0.002360     -0.001441
      1.57043      4.99522     10.46327         0.002135      0.001022     -0.001441
      8.23207      6.54306      2.23358         0.002135     -0.001022      0.001441
      8.21206      1.13757      2.23358        -0.001952     -0.001338      0.001441
      3.54077      3.85765      2.23358        -0.000183      0.002360      0.001441
      5.12470      1.14796      5.28899        -0.000225     -0.000157      0.000342
      9.76675      3.86414      5.28899         0.000249     -0.000116      0.000342
      5.09345      6.52619      5.28899        -0.000023      0.000273      0.000342
     -1.56818      5.01210      7.40785        -0.000023     -0.000273     -0.000342
     -1.53694     10.39032      7.40785        -0.000225      0.000157     -0.000342
      3.10512      7.67415      7.40785         0.000249      0.000116     -0.000342
      1.53694     10.39032      7.40785         0.000225      0.000157     -0.000342
     -3.10512      7.67415      7.40785        -0.000249      0.000116     -0.000342
      1.56818      5.01210      7.40785         0.000023     -0.000273     -0.000342
      8.22982      6.52619      5.28899         0.000023      0.000273      0.000342
      8.19857      1.14796      5.28899         0.000225     -0.000157      0.000342
      3.55651      3.86414      5.28899        -0.000249     -0.000116      0.000342
     -1.59045      2.75475      0.00000         0.002577     -0.004464      0.000000
      5.07118      8.78354      0.00000         0.002577      0.004464      0.000000
      3.18091      0.00000      0.00000        -0.005155      0.000000      0.000000
     -5.07118      8.78354      0.00000        -0.002577      0.004464      0.000000
      1.59045      2.75475      0.00000        -0.002577     -0.004464      0.000000
     10.14235      0.00000      0.00000         0.005155      0.000000      0.000000
      4.70937      2.71896      2.15589        -0.001417     -0.000818     -0.001107
      8.61389      2.71896      2.15589         0.001417     -0.000818     -0.001107
      6.66163      6.10037      2.15589         0.000000      0.001636     -0.001107
      0.00000      5.43792     10.54096        -0.000000     -0.001636      0.001107
     -1.95226      8.81933     10.54096        -0.001417      0.000818      0.001107
      1.95226      8.81933     10.54096         0.001417      0.000818      0.001107
      4.12804      0.25437      1.29725         0.001739     -0.001753     -0.000435
     11.03895      3.44780      1.29725         0.000649      0.002383     -0.000435
      4.81790      7.83611      1.29725        -0.002388     -0.000629     -0.000435
     -1.84373      3.70217     11.39959        -0.002388      0.000629      0.000435
     -2.53359     11.28392     11.39959         0.001739      0.001753      0.000435
      4.37732      8.09048     11.39959         0.000649     -0.002383      0.000435
      2.53359     11.28392     11.39959        -0.001739      0.001753      0.000435
     -4.37732      8.09048     11.39959        -0.000649     -0.002383      0.000435
      1.84373      3.70217     11.39959         0.002388      0.000629      0.000435
      8.50536      7.83611      1.29725         0.002388     -0.000629     -0.000435
      9.19522      0.25437      1.29725        -0.001739     -0.001753     -0.000435
      2.28431      3.44780      1.29725        -0.000649      0.002383     -0.000435
      6.66163      0.97672      1.74740         0.000000      0.001720      0.002683
      9.14658      5.28078      1.74740        -0.001489     -0.000860      0.002683
      4.17668      5.28078      1.74740         0.001489     -0.000860      0.002683
     -2.48495      6.25750     10.94945         0.001489      0.000860     -0.002683
      0.00000     10.56156     10.94945        -0.000000     -0.001720     -0.002683
      2.48495      6.25750     10.94945        -0.001489      0.000860     -0.002683
      4.95281      0.59146      3.76404        -0.001066      0.000353      0.000504
     10.33464      3.99353      3.76404         0.000227     -0.001100      0.000504
      4.69745      6.95330      3.76404         0.000839      0.000747      0.000504
     -1.96418      4.58499      8.93281         0.000839     -0.000747     -0.000504
     -1.70882     10.94682      8.93281        -0.001066     -0.000353     -0.000504
      3.67301      7.54476      8.93281         0.000227      0.001100     -0.000504
      1.70882     10.94682      8.93281         0.001066     -0.000353     -0.000504
     -3.67301      7.54476      8.93281        -0.000227      0.001100     -0.000504
      1.96418      4.58499      8.93281        -0.000839     -0.000747     -0.000504
      8.62582      6.95330      3.76404        -0.000839      0.000747      0.000504
      8.37045      0.59146      3.76404         0.001066      0.000353      0.000504
      2.98862      3.99353      3.76404        -0.000227     -0.001100      0.000504
      6.66163      1.63798      5.52342         0.000000      0.000583      0.001621
      8.57391      4.95015      5.52342        -0.000505     -0.000291      0.001621
      4.74935      4.95015      5.52342         0.000505     -0.000291      0.001621
     -1.91228      6.58813      7.17343         0.000505      0.000291     -0.001621
      0.00000      9.90030      7.17343        -0.000000     -0.000583     -0.001621
      1.91228      6.58813      7.17343        -0.000505      0.000291     -0.001621
      4.72579      0.00000      6.34842         0.000291      0.000000      0.000000
     -2.36290      4.09266      6.34842        -0.000145      0.000252      0.000000
      4.29873      7.44563      6.34842        -0.000145     -0.000252      0.000000
      8.59747      0.00000      6.34842        -0.000291      0.000000      0.000000
     -4.29873      7.44563      6.34842         0.000145     -0.000252      0.000000
      2.36290      4.09266      6.34842         0.000145      0.000252      0.000000
      4.12932      2.38406      5.55466        -0.000543     -0.000313      0.000643
      9.19395      2.38406      5.55466         0.000543     -0.000313      0.000643
      6.66163      6.77016      5.55466         0.000000      0.000627      0.000643
      0.00000      4.76812      7.14219        -0.000000     -0.000627     -0.000643
     -2.53232      9.15422      7.14219        -0.000543      0.000313     -0.000643
      2.53232      9.15422      7.14219         0.000543      0.000313     -0.000643
     11.08115      1.29449     12.40877        -0.000699      0.000404      0.003559
      6.66163      8.94931     12.40877        -0.000000     -0.000807      0.003559
      2.24211      1.29449     12.40877         0.000699      0.000404      0.003559
     -4.41952     10.24380      0.28808         0.000699     -0.000404     -0.003559
      4.41952     10.24380      0.28808        -0.000699     -0.000404     -0.003559
      0.00000      2.58897      0.28808         0.000000      0.000807     -0.003559
 -----------------------------------------------------------------------------------
    total drift:                               -0.000000      0.000000     -0.000000


--------------------------------------------------------------------------------------------------------



  FREE ENERGIE OF THE ION-ELECTRON SYSTEM (eV)
  ---------------------------------------------------
  free  energy   TOTEN  =      -711.58260930 eV

  energy  without entropy=     -711.64287326  energy(sigma->0) =     -711.60269729
 


--------------------------------------------------------------------------------------------------------


    POTLOK:  cpu time    0.7056: real time    0.7082


--------------------------------------------------------------------------------------------------------


 stress matrix after NEB project (eV)
     -0.02397     -0.00000      0.00000
     -0.00000     -0.02397     -0.00000
     -0.00000      0.00000      0.01608
  FORCES: max atom, RMS     0.005155    0.002438
  FORCE total and by dimension    0.023128    0.005155
  Stress total and by dimension    0.037524    0.023973
 Quasi-Newton relaxation of ions (Broydens 2nd method)
  g(Force)  = 0.258E-04   g(Stress)= 0.000E+00

 Reset! Starting new Quasi-Newton update for ions 


--------------------------------------------------------------------------------------------------------


  
 reached required accuracy - stopping structural energy minimisation
     LOOP+:  cpu time  105.1184: real time  107.7375
    4ORBIT:  cpu time    0.0000: real time    0.0000

 total amount of memory used by VASP on root node    45650. kBytes
========================================================================

   base      :      30000. kBytes
   nonlr-proj:       3299. kBytes
   fftplans  :       2894. kBytes
   grid      :       4595. kBytes
   one-center:          6. kBytes
   wavefun   :       4856. kBytes
 
  
  
 General timing and accounting informations for this job:
 ========================================================
  
                  Total CPU time used (sec):      116.107
                            User time (sec):       34.221
                          System time (sec):       81.886
                         Elapsed time (sec):      119.433
  
                   Maximum memory used (kb):       89492.
                   Average memory used (kb):           0.
  
                          Minor page faults:        90086
                          Major page faults:           11
                 Voluntary context switches:         4554
