unknown system                          
           1
    13.323262    0.000000    0.000000
    -6.661631   11.538284    0.000000
     0.000000    0.000000   12.696845
   Si   O 
  30  60
Direct configuration=     1
   0.43292568  0.09859126  0.17591613
   0.90140874  0.33433442  0.17591613
   0.66566558  0.56707432  0.17591613
   0.09859126  0.43292568  0.82408387
   0.33433442  0.90140874  0.82408387
   0.56707432  0.66566558  0.82408387
   0.56707432  0.90140874  0.82408387
   0.09859126  0.66566558  0.82408387
   0.33433442  0.43292568  0.82408387
   0.90140874  0.56707432  0.17591613
   0.66566558  0.09859126  0.17591613
   0.43292568  0.33433442  0.17591613
   0.43438847  0.09949151  0.41655966
   0.90050849  0.33489696  0.41655966
   0.66510304  0.56561153  0.41655966
   0.09949151  0.43438847  0.58344034
   0.33489696  0.90050849  0.58344034
   0.56561153  0.66510304  0.58344034
   0.56561153  0.90050849  0.58344034
   0.09949151  0.66510304  0.58344034
   0.33489696  0.43438847  0.58344034
   0.90050849  0.56561153  0.41655966
   0.66510304  0.09949151  0.41655966
   0.43438847  0.33489696  0.41655966
   0.00000000  0.23874840  0.00000000
   0.76125160  0.76125160  0.00000000
   0.23874840  0.00000000  0.00000000
   0.00000000  0.76125160  0.00000000
   0.23874840  0.23874840  0.00000000
   0.76125160  0.00000000  0.00000000
   0.47129336  0.23564668  0.16979730
   0.76435332  0.23564668  0.16979730
   0.76435332  0.52870664  0.16979730
   0.23564668  0.47129336  0.83020270
   0.23564668  0.76435332  0.83020270
   0.52870664  0.76435332  0.83020270
   0.32085970  0.02204549  0.10217135
   0.97795451  0.29881422  0.10217135
   0.70118578  0.67914030  0.10217135
   0.02204549  0.32085970  0.89782865
   0.29881422  0.97795451  0.89782865
   0.67914030  0.70118578  0.89782865
   0.67914030  0.97795451  0.89782865
   0.02204549  0.70118578  0.89782865
   0.29881422  0.32085970  0.89782865
   0.97795451  0.67914030  0.10217135
   0.70118578  0.02204549  0.10217135
   0.32085970  0.29881422  0.10217135
   0.54232529  0.08465058  0.13762448
   0.91534942  0.45767471  0.13762448
   0.54232529  0.45767471  0.13762448
   0.08465058  0.54232529  0.86237552
   0.45767471  0.91534942  0.86237552
   0.45767471  0.54232529  0.86237552
   0.39737178  0.05126073  0.29645471
   0.94873927  0.34611105  0.29645471
   0.65388895  0.60262822  0.29645471
   0.05126073  0.39737178  0.70354529
   0.34611105  0.94873927  0.70354529
   0.60262822  0.65388895  0.70354529
   0.60262822  0.94873927  0.70354529
   0.05126073  0.65388895  0.70354529
   0.34611105  0.39737178  0.70354529
   0.94873927  0.60262822  0.29645471
   0.65388895  0.05126073  0.29645471
   0.39737178  0.34611105  0.29645471
   0.57098029  0.14196059  0.43502286
   0.85803941  0.42901971  0.43502286
   0.57098029  0.42901971  0.43502286
   0.14196059  0.57098029  0.56497714
   0.42901971  0.85803941  0.56497714
   0.42901971  0.57098029  0.56497714
   0.35470239  0.00000000  0.50000000
   0.00000000  0.35470239  0.50000000
   0.64529761  0.64529761  0.50000000
   0.64529761  0.00000000  0.50000000
   0.00000000  0.64529761  0.50000000
   0.35470239  0.35470239  0.50000000
   0.41324375  0.20662187  0.43748327
   0.79337813  0.20662187  0.43748327
   0.79337813  0.58675625  0.43748327
   0.20662187  0.41324375  0.56251673
   0.20662187  0.79337813  0.56251673
   0.58675625  0.79337813  0.56251673
   0.88780953  0.11219047  0.97731109
   0.88780953  0.77561907  0.97731109
   0.22438093  0.11219047  0.97731109
   0.11219047  0.88780953  0.02268891
   0.77561907  0.88780953  0.02268891
   0.11219047  0.22438093  0.02268891
